
                                 *****************
                                 * O   R   C   A *
                                 *****************

                                            #,                                       
                                            ###                                      
                                            ####                                     
                                            #####                                    
                                            ######                                   
                                           ########,                                 
                                     ,,################,,,,,                         
                               ,,#################################,,                 
                          ,,##########################################,,             
                       ,#########################################, ''#####,          
                    ,#############################################,,   '####,        
                  ,##################################################,,,,####,       
                ,###########''''           ''''###############################       
              ,#####''   ,,,,##########,,,,          '''####'''          '####       
            ,##' ,,,,###########################,,,                        '##       
           ' ,,###''''                  '''############,,,                           
         ,,##''                                '''############,,,,        ,,,,,,###''
      ,#''                                            '''#######################'''  
     '                                                          ''''####''''         
             ,#######,   #######,   ,#######,      ##                                
            ,#'     '#,  ##    ##  ,#'     '#,    #''#        ,####,   ,####,        
            ##       ##  ##   ,#'  ##            #'  '#       #'       #'  '#        
            ##       ##  #######   ##           ,######,      #####,   #    #        
            '#,     ,#'  ##    ##  '#,     ,#' ,#      #,     #,   #   #,  ,#        
             '#######'   ##     ##  '#######'  #'      '#     '####' # '####'        



                #########################################################
                #                        -***-                          #
                #          Department of theory and spectroscopy        #
                #                                                       #
                #                      Frank Neese                      #
                #                                                       #
                #     Directorship, Architecture, Infrastructure        #
                #                    SHARK, DRIVERS                     #
                #        Core code/Algorithms in most modules           #
                #                                                       #
                #        Max Planck Institute fuer Kohlenforschung      #
                #                Kaiser Wilhelm Platz 1                 #
                #                 D-45470 Muelheim/Ruhr                 #
                #                      Germany                          #
                #                                                       #
                #                  All rights reserved                  #
                #                        -***-                          #
                #########################################################


                         Program Version 6.0.0  -   RELEASE  -


 With contributions from (in alphabetic order):
   Daniel Aravena         : Magnetic Suceptibility
   Michael Atanasov       : Ab Initio Ligand Field Theory (pilot matlab implementation)
   Alexander A. Auer      : GIAO ZORA, VPT2 properties, NMR spectrum
   Ute Becker             : All parallelization in ORCA, NUMFREQ, NUMCALC
   Giovanni Bistoni       : ED, misc. LED, open-shell LED, HFLD
   Martin Brehm           : Molecular dynamics
   Dmytro Bykov           : pre 5.0 version of the SCF Hessian
   Marcos Casanova-Páez   : Triplet and SCS-CIS(D). UHF-(DLPNO)-IP/EA/STEOM-CCSD. UHF-CVS-IP/STEOM-CCSD
   Vijay G. Chilkuri      : MRCI spin determinant printing, contributions to CSF-ICE
   Pauline Colinet        : FMM embedding
   Dipayan Datta          : RHF DLPNO-CCSD density
   Achintya Kumar Dutta   : EOM-CC, STEOM-CC
   Nicolas Foglia         : Exact transition moments, OPA infrastructure, MCD improvements
   Dmitry Ganyushin       : Spin-Orbit,Spin-Spin,Magnetic field MRCI
   Miquel Garcia          : C-PCM and meta-GGA Hessian, CCSD/C-PCM, Gaussian charge scheme
   Tiago L. C. Gouveia    : GS-ROHF, GS-ROCIS
   Yang Guo               : DLPNO-NEVPT2, F12-NEVPT2, CIM, IAO-localization
   Andreas Hansen         : Spin unrestricted coupled pair/coupled cluster methods
   Ingolf Harden          : AUTO-CI MPn and infrastructure 
   Benjamin Helmich-Paris : MC-RPA, TRAH-(SCF,CASSCF), AVAS, COSX integrals, SCF dyn. polar.
   Lee Huntington         : MR-EOM, pCC
   Robert Izsak           : Overlap fitted RIJCOSX, COSX-SCS-MP3, EOM
   Riya Kayal             : Wick's Theorem for AUTO-CI, AUTO-CI UHF-CCSDT
   Emily Kempfer          : AUTO-CI, RHF CISDT and CCSDT
   Christian Kollmar      : KDIIS, OOCD, Brueckner-CCSD(T), CCSD density, CASPT2, CASPT2-K, improved NEVPT2
   Axel Koslowski         : Symmetry handling
   Simone Kossmann        : Meta GGA functionals, TD-DFT gradient, OOMP2, (MP2 Hessian; deprecated post 5.0)
   Lucas Lang             : DCDCAS
   Marvin Lechner         : AUTO-CI (C++ implementation), FIC-MRCC
   Spencer Leger          : CASSCF response
   Dagmar Lenk            : GEPOL surface, SMD, ORCA-2-JSON
   Dimitrios Liakos       : Extrapolation schemes; Compound Job, initial MDCI parallelization
   Dimitrios Manganas     : Further ROCIS development; embedding schemes. LFT, Crystal Embedding
   Dimitrios Pantazis     : SARC Basis sets
   Anastasios Papadopoulos: AUTO-CI, single reference methods and gradients
   Taras Petrenko         : pre 6.0 DFT Hessian and TD-DFT gradient, (ASA, deprecated), ECA, 1-Electron XAS/XES, NRVS
   Peter Pinski           : DLPNO-MP2, DLPNO-MP2 Gradient
   Christoph Reimann      : Effective Core Potentials
   Marius Retegan         : Local ZFS, SOC
   Christoph Riplinger    : Optimizer, TS searches, QM/MM, DLPNO-CCSD(T), (RO)-DLPNO pert. Triples
   Michael Roemelt        : Original ROCIS implementation
   Masaaki Saitow         : Open-shell DLPNO-CCSD energy and density
   Barbara Sandhoefer     : DKH picture change effects
   Kantharuban Sivalingam : CASSCF convergence/infrastructure, NEVPT2 and variants, FIC-MRCI
   Bernardo de Souza      : ESD, SOC TD-DFT
   Georgi Stoychev        : AutoAux, RI-MP2 NMR, DLPNO-MP2 response, X2C
   Van Anh Tran           : RI-MP2 g-tensors
   Willem Van den Heuvel  : Paramagnetic NMR
   Zikuan Wang            : NOTCH, Electric field optimization 
   Frank Wennmohs         : Technical directorship and infrastructure
   Hang Xu                : AUTO-CI-Response properties 


 We gratefully acknowledge several colleagues who have allowed us to
 interface, adapt or use parts of their codes:
   Stefan Grimme, W. Hujo, H. Kruse, P. Pracht,  : VdW corrections, initial TS optimization,
                  C. Bannwarth, S. Ehlert,         DFT functionals, gCP, sTDA/sTD-DF
                  L. Wittmann, M. Mueller
   Ed Valeev, F. Pavosevic, A. Kumar             : LibInt (2-el integral package), F12 methods
   Garnet Chan, S. Sharma, J. Yang, R. Olivares  : DMRG
   Ulf Ekstrom                                   : XCFun DFT Library
   Mihaly Kallay                                 : mrcc  (arbitrary order and MRCC methods)
   Frank Weinhold                                : gennbo (NPA and NBO analysis)
   Simon Mueller                                 : openCOSMO-RS
   Christopher J. Cramer and Donald G. Truhlar   : smd solvation model
   Lars Goerigk                                  : TD-DFT with DH, B97 family of functionals
   V. Asgeirsson, H. Jonsson                     : NEB implementation
   FAccTs GmbH                                   : IRC, NEB, NEB-TS, DLPNO-Multilevel, CI-OPT
                                                   MM, QMMM, 2- and 3-layer-ONIOM, Crystal-QMMM,
                                                   LR-CPCM, SF, NACMEs, symmetry and pop. for TD-DFT,
                                                   nearIR, NL-DFT gradient (VV10), updates on ESD,
                                                   ML-optimized integration grids, MBIS, APM,
                                                   GOAT, DOCKER, SOLVATOR, interface openCOSMO-RS
   S Lehtola, MJT Oliveira, MAL Marques          : LibXC Library
   Liviu Ungur et al                             : ANISO software


 Your calculation uses the libint2 library for the computation of 2-el integrals
 For citations please refer to: http://libint.valeyev.net

 Your ORCA version has been built with support for libXC version: 6.2.2
 For citations please refer to: https://libxc.gitlab.io

 This ORCA versions uses:
   CBLAS   interface :  Fast vector & matrix operations
   LAPACKE interface :  Fast linear algebra routines
   SCALAPACK package :  Parallel linear algebra routines
   Shared memory     :  Shared parallel matrices
   BLAS/LAPACK       :  OpenBLAS 0.3.27  USE64BITINT DYNAMIC_ARCH NO_AFFINITY Haswell SINGLE_THREADED
        Core in use  :  Haswell
   Copyright (c) 2011-2014, The OpenBLAS Project


NOTE: MaxCore=6000 MB was set to SCF,MP2,MDCI,CIPSI,MRCI and CIS
      => If you want to overwrite this, your respective input block should be placed after the MaxCore statement
================================================================================

----- Orbital basis set information -----
Your calculation utilizes the basis: cc-pVTZ 
       H, B-Ne : Obtained from the ccRepo (grant-hill.group.shef.ac.uk/ccrepo) Feb. 2017
                 T. H. Dunning, Jr., J. Chem. Phys. 90, 1007 (1989)
            He : Obtained from the ccRepo (grant-hill.group.shef.ac.uk/ccrepo) Feb. 2017
                 D. E. Woon, T. H. Dunning, Jr., J. Chem. Phys. 100, 2975 (1994)
  Li-Be, Na-Mg : Obtained from the ccRepo (grant-hill.group.shef.ac.uk/ccrepo) Feb. 2017
                 B. P. Prascher, D. E. Woon, K. A. Peterson, T. H. Dunning, Jr., A. K. Wilson, Theor. Chem. Acc. 128, 69 (2011)
         Al-Ar : Obtained from the ccRepo (grant-hill.group.shef.ac.uk/ccrepo) Feb. 2017
                 D. E. Woon, T. H. Dunning, Jr., J. Chem. Phys. 98, 1358 (1993)
            Ca : Obtained from the Peterson Research Group Website (tyr0.chem.wsu.edu/~kipeters) Feb. 2017
                 J. Koput, K. A. Peterson, J. Phys. Chem. 106, 9595 (2002)
         Sc-Zn : Obtained from the ccRepo (grant-hill.group.shef.ac.uk/ccrepo) Feb. 2017
                 N. B. Balabanov, K. A. Peterson, J. Chem. Phys. 123, 064107 (2005)
                 N. B. Balabanov, K. A. Peterson, J. Chem. Phys. 125, 074110 (2006)
         Ga-Kr : Obtained from the ccRepo (grant-hill.group.shef.ac.uk/ccrepo) Feb. 2017
                 A. K. Wilson, D. E. Woon, K. A. Peterson, T. H. Dunning, Jr., J. Chem. Phys. 110, 7667 (1999)
             Y : Obtained from the ccRepo (grant-hill.group.shef.ac.uk/ccrepo) Feb. 2017
                 K. A. Peterson, D. Figgen, M. Dolg, H. Stoll, J. Chem. Phys. 126, 124101 (2007)
        Ag, Au : Obtained from the Peterson Research Group Website (tyr0.chem.wsu.edu/~kipeters) Feb. 2017
                 K. A. Peterson, C. Puzzarini, Theor. Chem. Acc. 114, 283 (2005)

----- AuxC basis set information -----
Your calculation utilizes the auxiliary basis: cc-pVTZ/C 
  Obtained from the EMSL Basis Set Exchange (bse.pnl.gov) Feb. 2017
  H-He, B-F, Al-Ar, Ga-Kr : F. Weigend, A. Kohn, C. Hattig, J. Chem. Phys. 116, 3175 (2002)
             Li-Be, Na-Mg : C. Haettig, Phys. Chem. Chem. Phys. 7, 59 (2005)
                       Ne : C. Haettig, Phys. Chem. Chem. Phys. 7, 59 (2005)
                            F. Weigend, A. Kohn, C. Hattig, J. Chem. Phys. 116, 3175 (2002)
                    Sc-Zn : J. G. Hill, J. A. Platts, J. Chem. Phys. 128, 044104 (2008)

----- AuxJK basis set information -----
Your calculation utilizes the auxiliary basis: cc-pVTZ/JK 
  H, B-F, Al-Cl, Ga-Br : Obtained from the TURBOMOLE 7.0 basis set library

================================================================================
                                        WARNINGS
                       Please study these warnings very carefully!
================================================================================


WARNING: Post HF methods need fully converged wavefunctions
  ===> : Setting SCFConvForced true
         You can overwrite this default with %scf ConvForced false 


WARNING: MDCI localization with Augmented Hessian Foster-Boys
  ===> : Switching off randomization!

================================================================================
                                       INPUT FILE
================================================================================
NAME = sp.inp
|  1> %maxcore  6000
|  2> %pal nprocs 8 end
|  3> ! DLPNO-CCSD(T) normalPNO RIJK cc-pVTZ cc-pVTZ/JK cc-pVTZ/C tightSCF noautostart miniprint nopop
|  4> %method
|  5> end
|  6> * xyz   0   1
|  7> O       8.642970000e-01  -1.713818000e+00  -4.733670000e-01
|  8> H       1.149970000e+00  -2.586897000e+00  -7.562990000e-01
|  9> H       1.685273000e+00  -1.201591000e+00  -3.019820000e-01
| 10> O      -7.306970000e-01   4.056690000e-01  -1.636684000e+00
| 11> H      -1.610695000e+00   2.468050000e-01  -1.244929000e+00
| 12> H      -2.647800000e-01  -4.357670000e-01  -1.507301000e+00
| 13> O       5.901240000e-01   1.738583000e+00   2.504310000e-01
| 14> H       4.986940000e-01   2.694291000e+00   2.013210000e-01
| 15> H       6.749400000e-02   1.372619000e+00  -5.126840000e-01
| 16> O      -7.022990000e-01  -4.947210000e-01   1.659451000e+00
| 17> H      -2.826090000e-01   3.632290000e-01   1.492787000e+00
| 18> H      -2.012380000e-01  -1.096535000e+00   1.085954000e+00
| 19> O       2.795840000e+00   1.134420000e-01   7.992500000e-02
| 20> H       3.296432000e+00   1.024640000e-01   9.004060000e-01
| 21> H       2.149178000e+00   8.417560000e-01   1.811250000e-01
| 22> O      -2.890180000e+00   1.527900000e-02   6.304800000e-02
| 23> H      -3.647524000e+00  -5.677560000e-01   1.560790000e-01
| 24> H      -2.256884000e+00  -2.480850000e-01   7.630950000e-01
| 25>  *
| 26> 
| 27>                          ****END OF INPUT****
================================================================================

                       ****************************
                       * Single Point Calculation *
                       ****************************

---------------------------------
CARTESIAN COORDINATES (ANGSTROEM)
---------------------------------
  O      0.864297   -1.713818   -0.473367
  H      1.149970   -2.586897   -0.756299
  H      1.685273   -1.201591   -0.301982
  O     -0.730697    0.405669   -1.636684
  H     -1.610695    0.246805   -1.244929
  H     -0.264780   -0.435767   -1.507301
  O      0.590124    1.738583    0.250431
  H      0.498694    2.694291    0.201321
  H      0.067494    1.372619   -0.512684
  O     -0.702299   -0.494721    1.659451
  H     -0.282609    0.363229    1.492787
  H     -0.201238   -1.096535    1.085954
  O      2.795840    0.113442    0.079925
  H      3.296432    0.102464    0.900406
  H      2.149178    0.841756    0.181125
  O     -2.890180    0.015279    0.063048
  H     -3.647524   -0.567756    0.156079
  H     -2.256884   -0.248085    0.763095

----------------------------
CARTESIAN COORDINATES (A.U.)
----------------------------
  NO LB      ZA    FRAG     MASS         X           Y           Z
   0 O     8.0000    0    15.999    1.633285   -3.238647   -0.894534
   1 H     1.0000    0     1.008    2.173128   -4.888527   -1.429198
   2 H     1.0000    0     1.008    3.184704   -2.270678   -0.570663
   3 O     8.0000    0    15.999   -1.380817    0.766603   -3.092885
   4 H     1.0000    0     1.008   -3.043772    0.466394   -2.352575
   5 H     1.0000    0     1.008   -0.500362   -0.823480   -2.848386
   6 O     8.0000    0    15.999    1.115173    3.285446    0.473246
   7 H     1.0000    0     1.008    0.942395    5.091472    0.380442
   8 H     1.0000    0     1.008    0.127545    2.593874   -0.968832
   9 O     8.0000    0    15.999   -1.327153   -0.934887    3.135908
  10 H     1.0000    0     1.008   -0.534054    0.686403    2.820959
  11 H     1.0000    0     1.008   -0.380285   -2.072151    2.052156
  12 O     8.0000    0    15.999    5.283372    0.214374    0.151036
  13 H     1.0000    0     1.008    6.229354    0.193629    1.701521
  14 H     1.0000    0     1.008    4.061358    1.590688    0.342277
  15 O     8.0000    0    15.999   -5.461649    0.028873    0.119143
  16 H     1.0000    0     1.008   -6.892821   -1.072903    0.294947
  17 H     1.0000    0     1.008   -4.264893   -0.468813    1.442041



           ************************************************************
           *        Program running with 8 parallel MPI-processes     *
           *              working on a common directory               *
           ************************************************************
------------------------------------------------------------------------------
                   ___                                                        
                  /   \      - P O W E R E D   B Y -                         
                 /     \                                                     
                 |  |  |   _    _      __       _____    __    __             
                 |  |  |  | |  | |    /  \     |  _  \  |  |  /  |          
                  \  \/   | |  | |   /    \    | | | |  |  | /  /          
                 / \  \   | |__| |  /  /\  \   | |_| |  |  |/  /          
                |  |  |   |  __  | /  /__\  \  |    /   |      \           
                |  |  |   | |  | | |   __   |  |    \   |  |\   \          
                \     /   | |  | | |  |  |  |  | |\  \  |  | \   \       
                 \___/    |_|  |_| |__|  |__|  |_| \__\ |__|  \__/        
                                                                              
                      - O R C A' S   B I G   F R I E N D -                    
                                      &                                       
                       - I N T E G R A L  F E E D E R -                       
                                                                              
 v1 FN, 2020, v2 2021, v3 2022-2024                                           
------------------------------------------------------------------------------


----------------------
SHARK INTEGRAL PACKAGE
----------------------

Number of atoms                             ...     18
Number of basis functions                   ...    384
Number of shells                            ...    168
Maximum angular momentum                    ...      3
Integral batch strategy                     ... SHARK/LIBINT Hybrid
RI-J (if used) integral strategy            ... SPLIT-RIJ (Revised 2003 algorithm where possible)
Printlevel                                  ...      1
Contraction scheme used                     ... PARTIAL GENERAL contraction
Prescreening option                         ... SCHWARTZ
   Thresh                                   ... 2.500e-11
   Tcut                                     ... 2.500e-12
   Tpresel                                  ... 2.500e-12 
Coulomb Range Separation                    ... NOT USED
Exchange Range Separation                   ... NOT USED
Multipole approximations                    ... NOT USED
Finite Nucleus Model                        ... NOT USED
CABS basis                                  ... NOT available
Auxiliary Coulomb fitting basis             ... NOT available
Auxiliary J/K fitting basis                 ... AVAILABLE
   # of basis functions in Aux-JK           ...    834
   # of shells in Aux-JK                    ...    270
   Maximum angular momentum in Aux-JK       ...      4
Auxiliary Correlation fitting basis         ... AVAILABLE
   # of basis functions in Aux-C            ...    846
   # of shells in Aux-C                     ...    258
   Maximum angular momentum in Aux-C        ...      4
Auxiliary 'external' fitting basis          ... NOT available

Checking pre-screening integrals            ... done (  0.0 sec) Dimension = 168
Save PGC pre-screening integrals            ... done (  0.0 sec) Dimension = 168
Calculate PGC overlap integrals             ... done (  0.0 sec) Dimension = 132
Calculating pre-screening integrals (ORCA)  ... done (  0.1 sec) Dimension = 132
Check shell pair data                       ... done (  0.0 sec)
Shell pair information
Shell pair cut-off parameter TPreSel        ...   2.5e-12
Total number of shell pairs                 ...     14196
Shell pairs after pre-screening             ...     10200
Total number of primitive shell pairs       ...     20964
Primitive shell pairs kept                  ...     13288
          la=0 lb=0:   3064 shell pairs
          la=1 lb=0:   3052 shell pairs
          la=1 lb=1:    776 shell pairs
          la=2 lb=0:   1513 shell pairs
          la=2 lb=1:    856 shell pairs
          la=2 lb=2:    251 shell pairs
          la=3 lb=0:    342 shell pairs
          la=3 lb=1:    216 shell pairs
          la=3 lb=2:    114 shell pairs
          la=3 lb=3:     16 shell pairs

Calculating one electron integrals          ... done (  0.0 sec)
Calculating RI/JK V-Matrix + Cholesky decomp... done (  0.0 sec)
Calculating RI/C V-Matrix + Cholesky decomp.... done (  0.0 sec)
Calculating Nuclear repulsion               ... done (  0.0 sec) ENN=    300.505085042886 Eh

Diagonalization of the overlap matrix:
Smallest eigenvalue                        ... 1.294e-03
Time for diagonalization                   ...    0.019 sec
Threshold for overlap eigenvalues          ... 1.000e-07
Number of eigenvalues below threshold      ... 0
Time for construction of square roots      ...    0.009 sec
Total time needed                          ...    0.031 sec

-------------------
DFT GRID GENERATION
-------------------

General Integration Accuracy     IntAcc      ... 4.388
Radial Grid Type                 RadialGrid  ... OptM3 with GC (2021)
Angular Grid (max. ang.)         AngularGrid ... 4 (Lebedev-302)
Angular grid pruning method      GridPruning ... 4 (adaptive)
Weight generation scheme         WeightScheme... mBecke (2022)
Basis function cutoff            BFCut       ... 1.0000e-11
Integration weight cutoff        WCut        ... 1.0000e-14
Partially contracted basis set               ... off
Rotationally invariant grid construction     ... off
Angular grids for H and He will be reduced by one unit

Total number of grid points                  ...    75436
Total number of batches                      ...     1188
Average number of points per batch           ...       63
Average number of grid points per atom       ...     4191

---------------------
SHARK GRID GENERATION
---------------------

General Integration Accuracy     IntAcc      ... 4.388
Radial Grid Type                 RadialGrid  ... OptM3 with GC (2021)
Angular Grid (max. ang.)         AngularGrid ... 4 (Lebedev-302)
Angular grid pruning method      GridPruning ... 4 (adaptive)
Weight generation scheme         WeightScheme... mBecke (2022)
Basis function cutoff            BFCut       ... 1.0000e-11
Integration weight cutoff        WCut        ... 1.0000e-14
Partially contracted basis set               ... off
Rotationally invariant grid construction     ... off
Angular grids for H and He will be reduced by one unit
Steep s-basis detected: some atoms will have their radial
                        grid points doubled.

Total number of grid points                  ...   112482
Total number of batches                      ...     1767
Average number of points per batch           ...       63
Average number of grid points per atom       ...     6249
Initializing property integral containers    ... done (  0.0 sec)

SHARK setup successfully completed in   2.3 seconds

Maximum memory used throughout the entire STARTUP-calculation: 36.6 MB


           ************************************************************
           *        Program running with 8 parallel MPI-processes     *
           *              working on a common directory               *
           ************************************************************
Loading Hartree-Fock densities                     ... done
Calculating cut-offs                               ... done
Initializing the effective Hamiltonian             ... done
Setting up the integral package (SHARK)            ... done
Starting the Coulomb interaction                   ... done (   0.1 sec)
Making the grid                                    ... done (   0.2 sec)
Mapping shells                                     ... done
Starting the XC term evaluation                    ... done (   0.0 sec)
Transforming the Hamiltonian                       ... done (   0.0 sec)
Diagonalizing the Hamiltonian                      ... done (   0.0 sec)
Back transforming the eigenvectors                 ... done (   0.0 sec)
Now organizing SCF variables                       ... done
             **** ENERGY FILE WAS UPDATED (sp.en.tmp) ****
Finished Guess after   0.5 sec
Maximum memory used throughout the entire GUESS-calculation: 19.9 MB


           ************************************************************
           *        Program running with 8 parallel MPI-processes     *
           *              working on a common directory               *
           ************************************************************
----------------------------------------D-I-I-S--------------------------------------------
Iteration    Energy (Eh)           Delta-E    RMSDP     MaxDP     DIISErr   Damp  Time(sec)
-------------------------------------------------------------------------------------------
    1    -455.8965383221151910     0.00e+00  9.48e-04  3.97e-02  3.58e-01  0.700   0.8
    2    -455.3648579228113817     5.32e-01  1.06e-03  4.82e-02  3.37e-01  0.700   0.8
                               ***Turning on AO-DIIS***
    3    -455.4185625653800003    -5.37e-02  7.80e-04  3.49e-02  1.96e-01  0.700   0.8
    4    -455.7580074448512164    -3.39e-01  2.53e-04  9.74e-03  8.55e-02  0.700   0.8
    5    -456.1906090403087433    -4.33e-01  5.43e-04  2.23e-02  4.97e-02  0.000   0.8
    6    -456.3880954166307333    -1.97e-01  1.61e-04  8.66e-03  3.90e-02  0.000   0.8
    7    -456.3919210247631213    -3.83e-03  1.26e-04  6.18e-03  2.77e-02  0.000   0.8
    8    -456.3944644111725779    -2.54e-03  9.79e-05  4.03e-03  1.70e-02  0.000   0.8
    9    -456.3956132128246850    -1.15e-03  9.11e-05  4.23e-03  8.66e-03  0.000   0.8
                              *** Initializing SOSCF ***
---------------------------------------S-O-S-C-F--------------------------------------
Iteration    Energy (Eh)           Delta-E    RMSDP     MaxDP     MaxGrad    Time(sec)
--------------------------------------------------------------------------------------
   10    -456.3959800589008751    -3.67e-04  1.28e-05  7.34e-04  6.93e-04     0.8
   11    -456.3959847550648306    -4.70e-06  5.63e-06  1.28e-04  8.74e-05     0.7
   12    -456.3959854570502443    -7.02e-07  3.62e-06  9.11e-05  2.88e-05     0.8
   13    -456.3959855800528089    -1.23e-07  6.22e-07  2.99e-05  1.16e-05     0.7
   14    -456.3959855894135558    -9.36e-09  1.64e-07  4.66e-06  3.20e-06     0.7
                 **** Energy Check signals convergence ****

               *****************************************************
               *                     SUCCESS                       *
               *           SCF CONVERGED AFTER  14 CYCLES          *
               *****************************************************

             **** ENERGY FILE WAS UPDATED (sp.en.tmp) ****

----------------
TOTAL SCF ENERGY
----------------

Total Energy       :       -456.39598558941356 Eh          -12419.16615 eV

Components:
Nuclear Repulsion  :        300.50508504288592 Eh            8177.15908 eV
Electronic Energy  :       -756.90107063229948 Eh          -20596.32523 eV
One Electron Energy:      -1229.37022476004654 Eh          -33452.86453 eV
Two Electron Energy:        472.46915412774706 Eh           12856.53930 eV

Virial components:
Potential Energy   :       -912.28518551049899 Eh          -24824.54195 eV
Kinetic Energy     :        455.88919992108544 Eh           12405.37581 eV
Virial Ratio       :          2.00111164218941

---------------
SCF CONVERGENCE
---------------

  Last Energy change         ...    9.3607e-09  Tolerance :   1.0000e-08
  Last MAX-Density change    ...    4.6609e-06  Tolerance :   1.0000e-07
  Last RMS-Density change    ...    1.6442e-07  Tolerance :   5.0000e-09
  Last DIIS Error            ...    6.9311e-04  Tolerance :   5.0000e-07
  Last Orbital Gradient      ...    3.1994e-06  Tolerance :   1.0000e-05
  Last Orbital Rotation      ...    2.5730e-06  Tolerance :   1.0000e-05


----------------
ORBITAL ENERGIES
----------------

  NO   OCC          E(Eh)            E(eV) 
   0   2.0000     -20.568423      -559.6952 
   1   2.0000     -20.563984      -559.5745 
   2   2.0000     -20.563559      -559.5629 
   3   2.0000     -20.544725      -559.0504 
   4   2.0000     -20.544655      -559.0485 
   5   2.0000     -20.540029      -558.9226 
   6   2.0000      -1.368504       -37.2389 
   7   2.0000      -1.355162       -36.8758 
   8   2.0000      -1.348827       -36.7035 
   9   2.0000      -1.339685       -36.4547 
  10   2.0000      -1.331637       -36.2357 
  11   2.0000      -1.320841       -35.9419 
  12   2.0000      -0.741737       -20.1837 
  13   2.0000      -0.727595       -19.7989 
  14   2.0000      -0.716827       -19.5058 
  15   2.0000      -0.713570       -19.4172 
  16   2.0000      -0.697316       -18.9749 
  17   2.0000      -0.693840       -18.8803 
  18   2.0000      -0.632724       -17.2173 
  19   2.0000      -0.598965       -16.2987 
  20   2.0000      -0.591170       -16.0866 
  21   2.0000      -0.576029       -15.6745 
  22   2.0000      -0.571703       -15.5568 
  23   2.0000      -0.547669       -14.9028 
  24   2.0000      -0.518206       -14.1011 
  25   2.0000      -0.514037       -13.9877 
  26   2.0000      -0.510826       -13.9003 
  27   2.0000      -0.496231       -13.5031 
  28   2.0000      -0.490835       -13.3563 
  29   2.0000      -0.486648       -13.2424 
  30   0.0000       0.123899         3.3715 
  31   0.0000       0.155798         4.2395 
  32   0.0000       0.160787         4.3752 
  33   0.0000       0.173279         4.7152 
  34   0.0000       0.244739         6.6597 
  35   0.0000       0.253583         6.9003 
  36   0.0000       0.295567         8.0428 
  37   0.0000       0.306648         8.3443 
  38   0.0000       0.324773         8.8375 
  39   0.0000       0.326542         8.8856 
  40   0.0000       0.337587         9.1862 
*Only the first 10 virtual orbitals were printed.
Total SCF time: 0 days 0 hours 0 min 11 sec 
Finished LeanSCF after  11.1 sec

Maximum memory used throughout the entire LEANSCF-calculation: 42.0 MB


           ************************************************************
           *        Program running with 8 parallel MPI-processes     *
           *              working on a common directory               *
           ************************************************************

------------------------------------------------------------------------------
                         ORCA PROPERTY INTEGRAL CALCULATIONS
------------------------------------------------------------------------------

GBWName                                   ... sp.gbw
Number of atoms                           ...     18
Number of basis functions                 ...    384
Max core memory                           ...   6000 MB

Dipole integrals                          ... YES
Quadrupole integrals                      ...  NO
Linear momentum integrals                 ... YES
Angular momentum integrals                ... YES
Higher moments length integrals           ...  NO
Higher moments velocity integrals         ...  NO
Kinetic energy integrals                  ...  NO
GIAO right hand sides                     ...  NO
GIAO dipole derivative integrals          ...  NO
SOC integrals                             ...  NO
EPR diamagnetic integrals (GIAO)          ...  NO
EPR gauge integrals                       ...  NO
Field gradient integrals                  ...  NO (   0 nuclei)
Spin-dipole/Fermi contact integrals       ...  NO (   0 nuclei)
Contact density integrals                 ...  NO (   0 nuclei)
Nucleus-orbit integrals                   ...  NO (   0 nuclei)
Geometric perturbations                   ...  NO (  18 nuclei)

Choice of electric origin   ... Center of mass
Position of electric origin ... ( -0.0101,  0.0089, -0.0079) 
Choice of magnetic origin   ... GIAO
Position of magnetic origin ... (  0.0000,  0.0000,  0.0000) 

Calculating integrals                     ... Electric Dipole (Length)     done (  0.0 sec)
Calculating integrals                     ... Linear Momentum              done (  0.0 sec)
Calculating integrals                     ... Angular Momentum  (ElOri)    done (  0.0 sec)

Property integrals calculated in   0.1 sec

Maximum memory used throughout the entire PROPINT-calculation: 20.7 MB


           ************************************************************
           *        Program running with 8 parallel MPI-processes     *
           *              working on a common directory               *
           ************************************************************


--------------------------------------------------------------------------------
                             ORCA-MATRIX DRIVEN CI
--------------------------------------------------------------------------------


Wavefunction type
-----------------
Correlation treatment                      ...      CCSD     
Single excitations                         ... ON
Orbital optimization                       ... OFF
Calculation of Z vector                    ... OFF
Calculation of Brueckner orbitals          ... OFF
Perturbative triple excitations            ... ON
Calculation of F12 correction              ... OFF
Frozen core treatment                      ... chemical core (12 el)
Reference Wavefunction                     ... RHF
  Internal Orbitals:     6 ...   29 ( 24 MO's/ 48 electrons)
  Virtual  Orbitals:    30 ...  347 (318 MO's              )
Number of AO's                             ...    348
Number of electrons                        ...     60
Number of correlated electrons             ...     48

Algorithmic settings
--------------------
Integral transformation                    ... All integrals via the RI transformation
K(C) Formation                             ... RI-DLPNO
   PNO-Integral Storage                    ... ON DISK
   PNO occupation number cut-off           ... 3.330e-07
   Singles PNO occupation number cut-off   ... 9.990e-09
   PNO Mulliken prescreening cut-off       ... 1.000e-03
   Domain cut-off (Mulliken population)    ... 1.000e-03
   PNO Normalization                       ...    1
Maximum number of iterations               ...        50
Convergence tolerance (max. residuum)      ... 1.000e-05
Level shift for amplitude update           ... 2.000e-01
Maximum number of DIIS vectors             ...         7
DIIS turned on at iteration                ...         0
Damping before turning on DIIS             ...     0.500
Damping after turning on DIIS              ...     0.000
Pair specific amplitude update             ... OFF
Natural orbital iterations                 ... OFF
Perturbative natural orbital generation    ... OFF
Printlevel                                 ... 2

Singles Fock matrix elements calculated using PNOs.

Memory handling:
----------------
Maximum memory for working arrays          ...   6000 MB
Data storage in matrix containers          ... UNCOMPRESSED
Data type for integral storage             ... DOUBLE
In-Core Storage of quantities:
   Amplitudes+Sigma Vector      ... NO
   J+K operators                ... NO
   DIIS vectors                 ... NO
   3-external integrals         ... NO
   4-external integrals         ... NO

Localization treatment:
-----------------------
Localization option                        ...    6
Localization threshhold                    ... -1.0e+00
Using relative localization threshhold     ... 1.0e-08
Neglect threshold for strong pairs         ... 1.000e-04 Eh
Prescreening threshold for very weak pairs ... 1.000e-06 Eh

Initializing the integral package          ... done
Localizing the valence orbitals
Localizing the valence orbitals
------------------------------------------------------------------------------
                           ORCA ORBITAL LOCALIZATION
------------------------------------------------------------------------------

Input orbitals are from                  ... sp.gbw
Output orbitals are to                   ... sp.loc
Max. number of iterations                ... 128
Localizations seeded randomly            ... off
Convergence tolerance                    ... 1.000e-06
Using relative localization threshhold   ... 1.000e-08
Threshold for strong local MOs           ... 9.500e-01
Threshold for bond MOs                   ... 8.500e-01
Operator                                 ... 0
Orbital range for localization           ... 6 to 29
Localization criterion                   ... FOSTER-BOYS (AUGMENTED HESSIAN)
Doing the dipole integrals     ... o.k.
Initial value of the localization sum :   433.104692
ITERATION   0 : L=  446.0801516330 DL=  1.30e+01 (AVERGE_DL)=    0.2168237417 
ITERATION   1 : L=  447.7143830672 DL=  1.63e+00 (AVERGE_DL)=    0.0769488686 
ITERATION   2 : L=  448.2932889078 DL=  5.79e-01 (AVERGE_DL)=    0.0457983071 
ITERATION   3 : L=  448.3155760340 DL=  2.23e-02 (AVERGE_DL)=    0.0089861258 
ITERATION   4 : L=  448.3171135832 DL=  1.54e-03 (AVERGE_DL)=    0.0023602606 
ITERATION   5 : L=  448.3172624957 DL=  1.49e-04 (AVERGE_DL)=    0.0007345327 
ITERATION   6 : L=  448.3172755047 DL=  1.30e-05 (AVERGE_DL)=    0.0002171034 
ITERATION   7 : L=  448.3172766357 DL=  1.13e-06 (AVERGE_DL)=    0.0000640145 
ITERATION   8 : L=  448.3172767296 DL=  9.39e-08 (AVERGE_DL)=    0.0000184429 
LOCALIZATION SUM CONVERGED

------------------------------------------------------
AUGMENTED HESSIAN OPTIMIZATION OF FOSTER-BOYS ORBITALS
------------------------------------------------------

Spin operator:           0
Orbital window:          6 to 29
Number of iterations:    128
Gradient tolerance:      1.000e-06
Number of pairs:         276
Davidson threshold:      2000
Diagonalization method:  LAPACK
Iter:    0   L: 448.3172767296   Grad. norm: 2.113670e-03
   *** Likely close to a maximum now. ***
       Augmented Hessian eigenvalues:  3.78e-08 -1.32e+00 -1.41e+00 -1.41e+00 ... 
Iter:    1   L: 448.3172767485   Grad. norm: 7.308115e-09
LOCALIZATION HAS CONVERGED.

Eigenvalues of the Hessian:
  0 -1.315e+00
  1 -1.410e+00
  2 -1.413e+00
  3 -1.431e+00
  4 -1.446e+00
  5 -1.511e+00
  6 -3.060e+00
  7 -3.086e+00
  8 -3.088e+00
  9 -3.097e+00
    ...


--------------------------------------------------------------------------------
                    LOCALIZED MOLECULAR ORBITAL COMPOSITIONS
--------------------------------------------------------------------------------

The Mulliken populations for each LMO on each atom are computed
The LMO`s will be ordered according to atom index and type
  (A) Strongly localized MO`s have populations of >=0.950 on one atom
  (B) Two center bond orbitals have populations of >=0.850 on two atoms
  (C) Other MO`s are considered to be `delocalized`

FOUND  -  12 strongly local MO`s
       -  12 two center bond MO`s
       -   0 significantly delocalized MO`s

Rather strongly localized orbitals:
MO  17:  15O  -   0.990776
MO  16:  15O  -   0.985226
MO  15:  12O  -   0.980783
MO  14:  12O  -   0.983858
MO  13:   9O  -   0.979621
MO  12:   9O  -   0.976111
MO  11:   6O  -   0.988985
MO  10:   6O  -   0.982578
MO   9:   3O  -   0.972501
MO   8:   3O  -   0.974699
MO   7:   0O  -   0.989612
MO   6:   0O  -   0.989600
Bond-like localized orbitals:
MO  29:  17H  -   0.326444  and  15O  -   0.684700
MO  28:  16H  -   0.383836  and  15O  -   0.621769
MO  27:  14H  -   0.323775  and  12O  -   0.687273
MO  26:  13H  -   0.380276  and  12O  -   0.627053
MO  25:  11H  -   0.344199  and   9O  -   0.667257
MO  24:  10H  -   0.348741  and   9O  -   0.663055
MO  23:   8H  -   0.299709  and   6O  -   0.712561
MO  22:   7H  -   0.376897  and   6O  -   0.626436
MO  21:   5H  -   0.348334  and   3O  -   0.662548
MO  20:   4H  -   0.329894  and   3O  -   0.681053
MO  19:   2H  -   0.318986  and   0O  -   0.691387
MO  18:   1H  -   0.379294  and   0O  -   0.623737
Localized MO's were stored in: sp.loc

Localizing the core orbitals
------------------------------------------------------------------------------
                           ORCA ORBITAL LOCALIZATION
------------------------------------------------------------------------------

Input orbitals are from                  ... sp.loc
Output orbitals are to                   ... sp.loc
Max. number of iterations                ... 128
Localizations seeded randomly            ... off
Convergence tolerance                    ... 1.000e-06
Using relative localization threshhold   ... 1.000e-08
Threshold for strong local MOs           ... 9.500e-01
Threshold for bond MOs                   ... 8.500e-01
Operator                                 ... 0
Orbital range for localization           ... 0 to 5
Localization criterion                   ... FOSTER-BOYS (AUGMENTED HESSIAN)
Doing the dipole integrals     ... o.k.
Initial value of the localization sum :   108.569806
ITERATION   0 : L=  108.5698075215 DL=  1.07e-06 (AVERGE_DL)=    0.0002675519 
ITERATION   1 : L=  108.5698075215 DL=  0.00e+00 (AVERGE_DL)=    0.0000000000 
LOCALIZATION SUM CONVERGED

------------------------------------------------------
AUGMENTED HESSIAN OPTIMIZATION OF FOSTER-BOYS ORBITALS
------------------------------------------------------

Spin operator:           0
Orbital window:          0 to 5
Number of iterations:    128
Gradient tolerance:      1.000e-06
Number of pairs:         15
Davidson threshold:      2000
Diagonalization method:  LAPACK
Iter:    0   L: 108.5698075215   Grad. norm: 1.716674e-04
   *** Likely close to a maximum now. ***
       Augmented Hessian eigenvalues:  6.38e-11 -1.01e+02 -1.05e+02 -1.08e+02 ... 
Iter:    1   L: 108.5698075216   Grad. norm: 1.007925e-16
LOCALIZATION HAS CONVERGED.

Eigenvalues of the Hessian:
  0 -1.012e+02
  1 -1.054e+02
  2 -1.076e+02
  3 -1.085e+02
  4 -1.101e+02
  5 -1.198e+02
  6 -1.213e+02
  7 -1.235e+02
  8 -1.668e+02
  9 -1.788e+02
    ...


--------------------------------------------------------------------------------
                    LOCALIZED MOLECULAR ORBITAL COMPOSITIONS
--------------------------------------------------------------------------------

The Mulliken populations for each LMO on each atom are computed
The LMO`s will be ordered according to atom index and type
  (A) Strongly localized MO`s have populations of >=0.950 on one atom
  (B) Two center bond orbitals have populations of >=0.850 on two atoms
  (C) Other MO`s are considered to be `delocalized`

FOUND  -   6 strongly local MO`s
       -   0 two center bond MO`s
       -   0 significantly delocalized MO`s

Rather strongly localized orbitals:
MO   5:  15O  -   0.999743
MO   4:  12O  -   0.999777
MO   3:   9O  -   0.999816
MO   2:   6O  -   0.999789
MO   1:   3O  -   0.999807
MO   0:   0O  -   0.999755
Localized MO's were stored in: sp.loc

Warning: reference  - re-canonicalizations have been set to INT 1 VIRT 1
Warning: internal orbitals are localized - no re-canonicalization of internal orbitals
Warning: UsePNO is turned on - no re-canonicalization of internal and virtual orbitals
Fock densities were made 
Making Fock matrix and reference energy:

--------------------------
CLOSED-SHELL FOCK OPERATOR
--------------------------

Time needed for Fock operator              ...            1.166 sec
Reference energy                           ...   -456.395985590

--------------
DLPNO SETTINGS (2015 fully linear scaling implementation)
--------------

TCutMKN:           1.000e-03
TCutPAO:           1.000e-03
TCutPNO:           3.330e-07
TCutPNOSingles:    9.990e-09
TCutEN:            9.700e-01
TCutPAOExt:        1.000e-01
TCutPairs:         1.000e-04
TCutPre:           1.000e-06
TCutOSV:           1.000e-06
TCutDOij:          1.000e-05
TCutDO:            1.000e-02
TCutC:             1.000e-04
TCutCPAO:          1.000e-03
TCutCMO:           1.000e-03
TScaleDOMP2PreScr: 2.000e+00
TScaleMKNMP2PreScr:1.000e+01
TScalePNOMP2PreScr:1.000e+00
PAO overlap thresh 1.000e-08
Using PNOs for Singles Fock computation
Use new domains
Use fully linear algorithm
TCutTNO:           1.000e-09
TCutMP2Pairs:      1.000e-05
TCutDOStrong:      2.000e-02
TCutDOWeak:        4.000e-02
TCutMKNStrong:     1.000e-02
TCutMKNWeak:       1.000e-01
NTCutTNO:          1

--------------------------
Mulliken population of the LMOs            ... ok
Performing proximity check                 ... No problems found
Calculating differential overlap integrals ... ok

--------------------------
ELECTRON PAIR PRESCREENING
--------------------------

Dipole-based pair screening          .... used

   TCutDOij = 1.000000e-05
   TCutPre  = 1.000000e-06
   .... Finished loop over pairs
Total time spent in the prescreening                  ...     0.000 sec
sum of pair energies estimated for screened out pairs ...       0.000000000000 Eh
Thresholds for map construction and integral transformation for crude MP2:
   TCutMKN                    ...     1.0e-02
   TCutDO                     ...     2.0e-02
   TCutPairs                  ...     1.0e-04
   TCutPNO_CrudeMP2           ...     3.3e-07
   TCutPNOSingles_CrudeMP2    ...     1.0e-08
--------------------------------
LOCAL RI TRANSFORMATION (IAVPAO)
--------------------------------

Orbital window:       6 to 29
Number of PAOs:     348
Basis functions:    348 (132 shells)
Aux. functions:     846 (258 shells)
Use SHARK:           on
Have SHARK:         yes

Processing maps (0.0 sec)
Average map sizes:
   Aux shells -> MOs              24.0
   Aux shells -> PAOs            348.0
   MOs        -> AO shells       125.8
   PAOs       -> AO shells       132.0

Calculating integrals (0.6 sec, 53.917 MB)
Sorting integrals (0.1 sec, 53.908 MB)
Total time for the integral transformation: 0.7 sec
--------------------------------
INITIAL GUESS AND PNO GENERATION
--------------------------------

PNO truncation parameters                   .... 
    PAOOverlapThresh   =        1.000e-08

    TCutPairs          =        1.000e-04
    TCutPNO            =        3.330e-07
    TCutPNOSingles     =        9.990e-09
    TCutMP2Pairs       =        1.000e-05
    TCutMKN            =        1.000e-02
    TCutDO             =        2.000e-02

Pair selection                          .... not used
Type of local MP2 treatment                 .... semi-local MP2
Strategy for PNO selection                  .... occupation number selection
Pair density normalization                  .... MP2 norm
Spin component scaling                      .... not used

   .... Finished loop over pairs
Making pair pair interaction lists          ... done

                       ===========================
                        118 OF  300 PAIRS ARE KEPT CCSD PAIRS
                        148 OF  300 PAIRS ARE KEPT MP2 PAIRS FOR (T)
                         34 OF  300 PAIRS ARE SKIPPED
                       ===========================

Total time spent in the initial guess                 ...     1.594 sec
SL-MP2 correlation energy (all non-screened pairs)    ...      -1.555692423410 Eh

Initial PNO correlation energy                        ...      -1.547470196413 Eh
sum of pair energies prescreened and skipped MP2 pairs...      -0.000158206155 Eh
sum of pair energies of crude MP2 skipped pairs only  ...      -0.000158206155 Eh
sum of MP2 pair energies for pairs that were not kept ...      -0.006678271627 Eh
sum of PNO error estimates for the kept pairs         ...      -0.001543955369 Eh
                                                          --------------------
sum of all corrections                                         -0.008222226997
Initial total correlation energy                               -1.555692423410
Thresholds for map construction and integral transformation for fine MP2 and CCSD(T) calculation:
   TCutMKN   ...     1.0e-03
   TCutDO    ...     1.0e-02
   TCutPairs ...     1.0e-04
   TCutCMO   ...     1.0e-03
   TCutCPAO  ...     1.0e-03

Thresholds for map construction and integral transformation for strong Triples:
   TCutMKN   ...     1.0e-02
   TCutDO    ...     2.0e-02
   TCutCMO   ...     1.0e-03
   TCutCPAO  ...     1.0e-03

Thresholds for map construction and integral transformation for weak Triples:
   TCutMKN   ...     1.0e-01
   TCutDO    ...     4.0e-02
   TCutCMO   ...     1.0e-03
   TCutCPAO  ...     1.0e-03

--------------------------------
LOCAL RI TRANSFORMATION (IAVPAO)
--------------------------------

Orbital window:       6 to 29
Number of PAOs:     348
Basis functions:    348 (132 shells)
Aux. functions:     846 (258 shells)
Use SHARK:           on
Have SHARK:         yes

Processing maps (0.0 sec)
Average map sizes:
   Aux shells -> MOs              23.5
   Aux shells -> PAOs            348.0
   MOs        -> AO shells       125.8
   PAOs       -> AO shells       132.0

Calculating integrals (0.6 sec, 52.962 MB)
Sorting integrals (0.2 sec, 52.952 MB)
Total time for the integral transformation: 0.7 sec
--------------------------------
INITIAL GUESS AND PNO GENERATION
--------------------------------

PNO truncation parameters                   .... 
    PAOOverlapThresh   =        1.000e-08

    TCutPairs          =        1.000e-04
    TCutPNO            =        3.330e-07
    TCutPNOSingles     =        9.990e-09
    TCutMP2Pairs       =        1.000e-05
    TCutMKN            =        1.000e-03
    TCutDO             =        1.000e-02

Pair selection                          .... not used
Type of local MP2 treatment                 .... semi-local MP2
Strategy for PNO selection                  .... occupation number selection
Pair density normalization                  .... MP2 norm
Spin component scaling                      .... not used

   .... Finished loop over pairs

 PNO Occupation Number Statistics: 
  | Av. % of trace(Dij) retained        ...  98.023868347277
  | sigma^2 in % of trace(Dij) retained ...   3.07e+00
  | Av. % of trace(Di) retained         ...  99.999493699470
  | sigma^2 in % of trace(Di) retained  ...   1.85e-08
 Distributions of % trace(Dij) recovered:
  |       >= 99.9  ...    60 ( 22.6 % of all pairs)
  |   [80.0, 90.0) ...     1 (  0.4 % of all pairs)
  |   [90.0, 99.0) ...   195 ( 73.3 % of all pairs)
  |   [99.0, 99.9) ...    10 (  3.8 % of all pairs)
 Distributions of % trace(Di) recovered :
  |       >= 99.9  ...    24 (100.0 % of all I-pairs )

Making pair pair interaction lists          ... done

                       ===========================
                        118 OF  266 PAIRS ARE KEPT
                       ===========================

Total time spent in the initial guess                 ...     2.683 sec
SL-MP2 correlation energy (all non-screened pairs)    ...      -1.555939547632 Eh

Initial PNO correlation energy                        ...      -1.547826571151 Eh
sum of pair energies estimated for screened out pairs ...      -0.000158206155 Eh
sum of MP2 pair energies for pairs that were not kept ...      -0.006518901576 Eh
sum of PNO error estimates for the kept pairs         ...      -0.001594074904 Eh
                                                          --------------------
sum of all corrections                                         -0.008271182636
Initial total correlation energy                               -1.556097753787
Thresholds for map construction and integral transformation for fine MP2 and CCSD(T) calculation:
   TCutMKN   ...     1.0e-03
   TCutDO    ...     1.0e-02
   TCutPairs ...     1.0e-04
   TCutCMO   ...     1.0e-03
   TCutCPAO  ...     1.0e-03

Time for aux screen maps:            0.001
Time for maps after fine MP2:            0.007
-----------------------------
LOCAL RI TRANSFORMATION (IJV)
-----------------------------

Orbital window:       6 to 29
Basis functions:    348 (132 shells)
Aux. functions:     846 (258 shells)
Use SHARK:           on

Processing maps (0.0 sec)
Average map sizes:
   Aux shells -> MOs(i)           21.5
   Aux shells -> MOs(j)           24.0
   MOs        -> AO shells       125.8

Calculating integrals NOTE: Switching SHARK to General Contraction for MDCI
      If that is not desired please turn off the PGCFlag in the input (%shark PGCFlag 0 end)
(1.7 sec, 3.345 MB)
Sorting integrals (0.0 sec, 3.335 MB)
Total time for the integral transformation: 1.8 sec
--------------------------------
LOCAL RI TRANSFORMATION (VABPAO)
--------------------------------

Number of PAOs:     348
Basis functions:    348 (132 shells)
Aux. functions:     846 (258 shells)
Use SHARK:           on

Processing maps (0.0 sec)
Average map sizes:
   Aux shells -> PAOs            344.6
   PAOs       -> AO shells       132.0

Calculating integrals NOTE: Switching SHARK to General Contraction for MDCI
      If that is not desired please turn off the PGCFlag in the input (%shark PGCFlag 0 end)
(2.0 sec, 768.539 MB)
Finished


-------------------------------------
Pair Pair Term precalculation with     
RI-(ij|mn) and (im|jn) transformation  
ON THE FLY                             
-------------------------------------

   IBatch   1 (of   1)              ... done (    6.056 sec)
Total EXT                           ...           6.056 sec

IAVPA Available = YES
VABPAO Available= YES
IJV Available   = YES
IJK Available   = NO
PNO3i Available = YES
PNO3j Available = YES
PNO4 Available  = YES
---------------------
RI-PNO TRANSFORMATION
---------------------

Total Number of PNOs                   ...  3439
Average number of PNOs per pair        ...    29
Maximal number of PNOs per pair        ...    44
   #pairs with  1 -  5 PNOs   :    0
   #pairs with  6 - 10 PNOs   :    5
   #pairs with 11 - 15 PNOs   :   23
   #pairs with 16 - 20 PNOs   :   21
   #pairs with 21 - 25 PNOs   :    4
   #pairs with 26 - 30 PNOs   :    4
   #pairs with 31 - 35 PNOs   :    2
   #pairs with 36 - 40 PNOs   :   23
   #pairs with 41 - 45 PNOs   :   36
   #pairs with 46 - 50 PNOs   :    0

Generation of (ij|ab)[P] integrals            ... on
Generation of (ia|bc)[P],(ja|bc)[P] integrals ... on
Storage of 3 and 4 external integrals         ... on
Generation of ALL (ka|bc)[P] integrals        ... on
Keep RI integrals in memory                   ... off

Ibatch:  1 (of  1)
Starting 2-4 index PNO integral generation ... done

Timings:
Total PNO integral transformation time     ...          5.427 sec
Size of the 3-external file                ...        36 MB
Size of the 4-external file                ...       190 MB
Size of the IKJL file                      ...         0 MB
Size of the all 3-external file            ...       439 MB
Size of the 1-external file                ...         1 MB

Making pair/pair overlap matrices          ... done (    0.863 sec)
Size of the pair overlap file              ... 87 MB
Redoing the guess amplitudes               ... done (    0.002 sec)

-------------------------
FINAL STARTUP INFORMATION
-------------------------

E(0)                                       ...   -456.395985590
E(SL-MP2)                                  ...     -1.555939548
E(SL-MP2) including corrections            ...     -1.556097754
Initial E(tot)                             ...   -457.952083344
<T|T>                                      ...      0.337086067
Number of pairs included                   ... 118
Total number of pairs                      ... 300

------------------------------------------------
                  RHF COUPLED CLUSTER ITERATIONS
------------------------------------------------

Number of PNO amplitudes to be optimized   ...       120829
Number of non-PNO amplitudes               ...     11932632
Untruncated number of regular amplitudes   ...     30337200

Iter       E(tot)           E(Corr)          Delta-E          Residual     Time
  0   -457.952115287     -1.547858514      0.008081033      0.015350137    2.39
                           *** Turning on DIIS ***
  1   -457.988981912     -1.584725139     -0.036866625      0.006850888    2.40
  2   -458.021737585     -1.617480812     -0.032755673      0.002004219    2.42
  3   -458.027428148     -1.623171375     -0.005690563      0.000902495    2.43
  4   -458.028802977     -1.624546204     -0.001374830      0.000278405    2.45
  5   -458.029001074     -1.624744301     -0.000198096      0.000104362    2.42
  6   -458.029043922     -1.624787150     -0.000042849      0.000037343    2.45
  7   -458.029044542     -1.624787769     -0.000000620      0.000021183    2.40
  8   -458.029046996     -1.624790223     -0.000002454      0.000007759    2.44
               --- The Coupled-Cluster iterations have converged ---

----------------------
COUPLED CLUSTER ENERGY
----------------------

E(0)                                       ...   -456.395985590
E(CORR)(strong-pairs)                      ...     -1.624790223
E(CORR)(weak-pairs)                        ...     -0.008271183
E(CORR)(corrected)                         ...     -1.633061406
E(TOT)                                     ...   -458.029046996
Singles Norm <S|S>**1/2                    ...      0.053733507  
T1 diagnostic                              ...      0.007755764  

------------------
LARGEST AMPLITUDES
------------------
  21-> 30  21-> 30       0.034775
  24-> 30  24-> 30       0.034666
  25-> 30  25-> 30       0.034275
  22-> 30  22-> 30       0.033315
  18-> 30  18-> 30       0.033108
  26-> 30  26-> 30       0.032742
  28-> 30  28-> 30       0.032202
  20-> 30  20-> 30       0.031746
  16-> 32  16-> 32       0.031189
  28-> 31  28-> 31       0.029873
  27-> 30  27-> 30       0.029766
  26-> 31  26-> 31       0.029348
  23-> 30  23-> 30       0.029198
  19-> 30  19-> 30       0.029124
  18-> 31  18-> 31       0.029071
  29-> 32  29-> 32       0.028502


-------------------------------------------
DLPNO BASED TRIPLES CORRECTION
-------------------------------------------

Singles multiplier          ...  1.000000
TCutTNO                     ... 1.000e-09
TCutMP2Pairs                ... 1.000e-05
TCutDOStrong                ... 2.000e-02
TCutMKNStrong               ... 1.000e-02
TCutDOWeak                  ... 4.000e-02
TCutMKNWeak                 ... 1.000e-01

Fragment selection                          .... not used
Fock matrix occ-virt block is zero --> Setting DT_in_Triples to false.
Number of Triples that are to be computed   ...       604

 . . . . . . . . .
10% done  
20% done  
30% done  
40% done  
50% done  
60% done  
70% done  
80% done  
90% done               (     12.833 sec)
Triples timings:
Total time for T0               ...    14.664 sec
Total time for Iterative (T)    ...     0.000 sec
Total time of overall (T)       ...    14.964 sec

Triples List generation         ...     0.000 sec
TNO generation                  ...     1.825 sec
Pair density generation         ...     0.002 sec
Look up tables                  ...     0.000 sec
Generating 3-index integrals    ...     8.181 sec
  Make 4-ind.int. from 3-ind.int...     1.020 sec
  Projecting amplitudes (D + S) ...     2.222 sec
  Downprojecting integrals      ...     0.000 sec
  Energy contr. (sum over a,b,c)...     0.330 sec
Fitting ET(->0)                 ...     0.000 sec

Everything after 3-index        ...     4.653 sec

Timing details:
 TNO integrals                  ...     9.050 sec
   Reading 3-index integrals    ...     0.320 sec
   Sorting integrals            ...     1.267 sec
       Sorting integrals 1      ...     0.000 sec
       Sorting integrals 2      ...     0.915 sec
       Sorting integrals 3      ...     0.044 sec
       Sorting integrals 4      ...     0.008 sec
       Sorting integrals 5      ...     0.016 sec
       Sorting integrals 6      ...     0.284 sec
   Calculating local VM**-1/2   ...     0.066 sec
   Orthogonal. integrals        ...     0.128 sec
   Multipl. 3-index integrals   ...     7.269 sec
   All concerning IRIab (w/TNO) ...     0.474 sec

 Calculate W0/W1                ...     1.078 sec
 W 3-ext contribution           ...     0.606 sec
 W 3-int contribution           ...     0.222 sec
 Sorting W                      ...     0.203 sec

 V exchange contribution        ...     0.118 sec

 Timings for Triples without generation
     of 3-index integrals       ...     4.652 sec
       0 weak pairs             ...     2.664 sec
       1 weak pair              ...     1.988 sec
       2 weak pairs             ...     0.000 sec
       3 weak pairs             ...     0.000 sec
  Extra time for extrapolation  ...     0.000 sec

Number of Triples   (0, 1, 2, 3 weak pairs; overall):    313     291       0       0  (   604)
Number of Atoms     (0, 1, 2, 3 weak pairs; overall):   11.2    10.0     0.0     0.0  (    18)
Number of PAOs      (0, 1, 2, 3 weak pairs; overall):  223.6   188.1     0.0     0.0  (   348)
Number of AuxFcns   (0, 1, 2, 3 weak pairs; overall):  201.5   245.8     0.0     0.0  (   846)
Number of TNOs      (0, 1, 2, 3 weak pairs         ):   63.1    51.2     0.0     0.0
Aver. Number of NTNO, Atoms, PAOs, AuxFcns / Triples:    604    57.4    10.6   206.5   222.8

Triples Correction (T)                     ...     -0.048482860
Final correlation energy                   ...     -1.681544265
E(CCSD)                                    ...   -458.029046996
E(CCSD(T))                                 ...   -458.077529855



--------------------------------------------------------------------------------
                                    TIMINGS
--------------------------------------------------------------------------------


Total execution time                   ...       61.978 sec

Localization of occupied MO's          ...        0.201 sec (  0.3%)
Fock Matrix Formation                  ...        1.166 sec (  1.9%)
Global overlap, Fock, MKN matrices     ...        0.289 sec (  0.5%)
Differential overlap integrals         ...        0.635 sec (  1.0%)
Organizing maps                        ...        0.022 sec (  0.0%)
RI 3-index integral generations        ...        5.255 sec (  8.5%)
RI-PNO integral transformation         ...       12.788 sec ( 20.6%)
Initial Guess                          ...        4.316 sec (  7.0%)
DIIS Solver                            ...        0.328 sec (  0.5%)
State Vector Update                    ...        0.005 sec (  0.0%)
Sigma-vector construction              ...       21.468 sec ( 34.6%)
  <D|H|D>(0-ext)                       ...        1.847 sec (  8.6% of sigma)
  <D|H|D>(2-ext Fock)                  ...        0.004 sec (  0.0% of sigma)
  <D|H|D>(2-ext)                       ...        2.169 sec ( 10.1% of sigma)
  <D|H|D>(4-ext)                       ...        1.442 sec (  6.7% of sigma)
  <D|H|D>(4-ext-corr)                  ...        6.220 sec ( 29.0% of sigma)
  CCSD doubles correction              ...        0.202 sec (  0.9% of sigma)
  <S|H|S>                              ...        1.583 sec (  7.4% of sigma)
  <S|H|D>(1-ext)                       ...        0.139 sec (  0.6% of sigma)
  <D|H|S>(1-ext)                       ...        0.005 sec (  0.0% of sigma)
  <S|H|D>(3-ext)                       ...        0.081 sec (  0.4% of sigma)
  Fock-dressing                        ...        4.383 sec ( 20.4% of sigma)
  Singles amplitudes                   ...        0.505 sec (  2.4% of sigma)
  (ik|jl)-dressing                     ...        2.026 sec (  9.4% of sigma)
  (ij|ab),(ia|jb)-dressing             ...        0.761 sec (  3.5% of sigma)
  Pair energies                        ...        0.004 sec (  0.0% of sigma)
Total Time for computing (T)           ...       14.966 sec ( 24.1% of ALL)


Maximum memory used throughout the entire MDCI-calculation: 528.2 MB

-------------------------   --------------------
FINAL SINGLE POINT ENERGY      -458.077529855426
-------------------------   --------------------



           ************************************************************
           *        Program running with 8 parallel MPI-processes     *
           *              working on a common directory               *
           ************************************************************

------------------------------------------------------------------------------
                              ORCA PROPERTY CALCULATIONS
------------------------------------------------------------------------------

GBWName                                 ... sp.gbw
Number of atoms                         ...     18
Number of basis functions               ...    384
Max core memory                         ...   6000 MB

Electric properties:
Dipole moment                           ... YES
Quadrupole moment                       ...  NO
Static polarizability (Dipole/Dipole)   ...  NO
Static polarizability (Dipole/Quad.)    ...  NO
Static polarizability (Quad./Quad.)     ...  NO
Static polarizability (Velocity)        ...  NO

Atomic electric properties:
Dipole moment                           ...  NO
Quadrupole moment                       ...  NO
Static polarizability                   ...  NO

Choice of electric origin               ... Center of mass
Position of electric origin             ...    -0.010115     0.008939    -0.007935

General magnetic properties:
Magnetizability                         ...  NO

EPR properties:
g-Tensor (aka g-matrix)                 ...  NO
Zero-Field splitting spin-orbit         ...  NO
Zero-field splitting spin-spin          ...  NO
Hyperfine couplings                     ...  NO (   0 nuclei)
Quadrupole couplings                    ...  NO (   0 nuclei)
Contact density                         ...  NO (   0 nuclei)

NMR properties:
Chemical shifts                         ...  NO (   0 nuclei)
Spin-rotation constants                 ...  NO (   0 nuclei)
Spin-spin couplings                     ...  NO (   0 nuclei,    0 pairs)

Choice of magnetic origin               ... GIAO
Position of magnetic origin             ...     0.000000     0.000000     0.000000

Properties with geometric perturbations:
SCF Hessian                             ...  NO
IR spectrum                             ...  NO
VCD spectrum                            ...  NO
X-ray spectroscopy properties:
SCF XES/XAS/RIXS spectra                ...  NO


-------------
DIPOLE MOMENT
-------------

Method             : SCF
Type of density    : Electron Density
Multiplicity       :   1
Irrep              :   0
Energy             :  -456.3959855894135558 Eh
Relativity type    : 
Basis              : AO
                                X                 Y                 Z
Electronic contribution:     -0.018029306       0.119109598      -0.118196518
Nuclear contribution   :      0.606908267      -0.536319091       0.476080319
                        -----------------------------------------
Total Dipole Moment    :      0.588878961      -0.417209493       0.357883801
                        -----------------------------------------
Magnitude (a.u.)       :      0.805557575
Magnitude (Debye)      :      2.047564634



--------------------
Rotational spectrum 
--------------------
 
Rotational constants in cm-1:             0.075389             0.038726             0.036931 
Rotational constants in MHz :          2260.092402          1160.975175          1107.150897 

Dipole components along the rotational axes: 
x,y,z [a.u.] :     0.588578    -0.443965     0.324645 
x,y,z [Debye]:     1.496046    -1.128468     0.825182 

 

Dipole moment calculation done in   0.0 sec 

Maximum memory used throughout the entire PROP-calculation: 17.8 MB

--------------------------------
SUGGESTED CITATIONS FOR THIS RUN
--------------------------------

Below you find a list of papers that are relevant to this ORCA run
We neither can nor want to force you to cite these papers, but we appreciate if you do
You receive ORCA, which is the product of decades of hard work by many enthusiastic individuals, for free
The only thing we kindly ask in return is that you cite our papers,
We deeply appreciate it, if you show your appreciation for ORCA by not just citing the generic ORCA reference.

Please note that relegating all ORCA citations to the supporting information does *not* help us.
SI sections are not indexed - citations you put there will not count into any citation statistics
But we need these citations in order to attract the funding resources that allow us to do what we are doing

Therefore, if you are a happy ORCA user, please consider citing a few of the papers listed below in the main body of your paper

In addition to the list printed below, the program has created the file sp.bibtex that contains the list in bibtex format
You can import this file easily into all common literature databanks and citation aid programs


List of essential papers. We consider these as the minimum necessary citations

  1. Neese,F.
     Software update: the ORCA program system, version 5.0
     WIRES Comput. Molec. Sci., 2022 12(1)e1606
     doi.org/10.1002/wcms.1606

List of papers to cite with high priority. The work reported in these papers was absolutely
necessary for this run to complete.
Our perspective: the developers of density functionals and basis sets usually get cited in chemistry papers
Good! But without the algorithms to do something with them, the functionals or basis sets would not do anything.
Hence, in our opinion, the algorithm design and method developments papers are equally worthy of getting cited

  1. Neese,F.
     An improvement of the resolution of the identity approximation for the formation of the Coulomb matrix
     J. Comp. Chem., 2003 24(14)1740-1747
     doi.org/10.1002/jcc.10318
  2. Kossmann,S.; Neese,F.
     Comparison of two efficient approximate Hartee-Fock approaches
     Chem. Phys. Lett., 2009 481 240-243
     doi.org/10.1016/j.cplett.2009.09.073
  3. Neese,F.; Hansen,A.; Liakos,D.G.
     Efficient and accurate approximations to the local coupled cluster singles doubles method using a truncated pair natural orbital basis
     J. Chem. Phys., 2009 131 064103
     doi.org/10.1063/1.3173827
  4. Neese,F.; Wennmohs,F.; Hansen,A.
     Efficient and accurate local approximations to coupled-electron pair approaches: An attempt to revive the pair natural orbital method
     J. Chem. Phys., 2009 130 114108
     doi.org/10.1063/1.3086717
  5. Riplinger,C.; Neese,F.
     An efficient and near linear scaling pair natural orbital based local coupled cluster method
     J. Chem. Phys., 2013 138(3)Art. No. 034106
     doi.org/10.1063/1.4773581
  6. Riplinger,C.; Sandhoefer,B.; Hansen,A.; Neese,F.
     Natural triple excitations in local coupled cluster calculations with pair natural orbitals
     J. Chem. Phys., 2013 139(13)Art. No. 134101
     doi.org/10.1063/1.4821834
  7. Riplinger,C.; Pinski,P.; Becker,U.; Valeev,E.F.; Neese,F.
     Sparse maps-A systematic infrastructure for reduced-scaling electronic structure methods. II. Linear scaling domain based pair natural orbital coupled cluster theory
     J. Chem. Phys., 2016 144 
     doi.org/10.1063/1.4939030
  8. Bistoni,G.; Riplinger,C.; Minenkov,Y.; Cavallo,L.; Auer,A.A.; Neese,F.
     Treating Subvalence Correlation Effects in Domain Based Pair Natural Orbital Coupled Cluster Calculations: An Out-of-the-Box Approach
     J. Theo. Comp. Chem., 2017 13 3220-3227
     doi.org/10.1021/acs.jctc.7b00352
  9. Neese,F.
     The SHARK Integral Generation and Digestion System
     J. Comp. Chem., 2022  1-16
     doi.org/10.1002/jcc.26942

List of suggested additional citations. These are papers that are important in the 'surrounding' of 
of this run, or papers that preceded the highly important papers. If you like your results we are grateful for a citation.

  1. Neese,F.
     The ORCA program system
     WIRES Comput. Molec. Sci., 2012 2(1)73-78
     doi.org/10.1002/wcms.81
  2. Neese,F.
     Software update: the ORCA program system, version 4.0
     WIRES Comput. Molec. Sci., 2018 8(1)1-6
     doi.org/10.1002/wcms.1327
  3. Neese,F.; Wennmohs,F.; Becker,U.; Riplinger,C.
     The ORCA quantum chemistry program package
     J. Chem. Phys., 2020 152 Art. No. L224108
     doi.org/10.1063/5.0004608

List of optional additional citations

  1. Neese,F.
     Approximate second-order SCF convergence for spin unrestricted wavefunctions
     Chem. Phys. Lett., 2000 325(1-3)93-98
     doi.org/10.1016/s0009-2614(00)00662-x

Timings for individual modules:

Sum of individual times          ...       77.292 sec (=   1.288 min)
Startup calculation              ...        2.457 sec (=   0.041 min)   3.2 %
SCF iterations                   ...       11.877 sec (=   0.198 min)  15.4 %
Property integrals               ...        0.356 sec (=   0.006 min)   0.5 %
Property calculations            ...        0.322 sec (=   0.005 min)   0.4 %
MDCI module                      ...       62.279 sec (=   1.038 min)  80.6 %
                             ****ORCA TERMINATED NORMALLY****
TOTAL RUN TIME: 0 days 0 hours 1 minutes 17 seconds 680 msec
