
                                 *****************
                                 * O   R   C   A *
                                 *****************

                                            #,                                       
                                            ###                                      
                                            ####                                     
                                            #####                                    
                                            ######                                   
                                           ########,                                 
                                     ,,################,,,,,                         
                               ,,#################################,,                 
                          ,,##########################################,,             
                       ,#########################################, ''#####,          
                    ,#############################################,,   '####,        
                  ,##################################################,,,,####,       
                ,###########''''           ''''###############################       
              ,#####''   ,,,,##########,,,,          '''####'''          '####       
            ,##' ,,,,###########################,,,                        '##       
           ' ,,###''''                  '''############,,,                           
         ,,##''                                '''############,,,,        ,,,,,,###''
      ,#''                                            '''#######################'''  
     '                                                          ''''####''''         
             ,#######,   #######,   ,#######,      ##                                
            ,#'     '#,  ##    ##  ,#'     '#,    #''#        ,####,   ,####,        
            ##       ##  ##   ,#'  ##            #'  '#       #'       #'  '#        
            ##       ##  #######   ##           ,######,      #####,   #    #        
            '#,     ,#'  ##    ##  '#,     ,#' ,#      #,     #,   #   #,  ,#        
             '#######'   ##     ##  '#######'  #'      '#     '####' # '####'        



                #########################################################
                #                        -***-                          #
                #          Department of theory and spectroscopy        #
                #                                                       #
                #                      Frank Neese                      #
                #                                                       #
                #     Directorship, Architecture, Infrastructure        #
                #                    SHARK, DRIVERS                     #
                #        Core code/Algorithms in most modules           #
                #                                                       #
                #        Max Planck Institute fuer Kohlenforschung      #
                #                Kaiser Wilhelm Platz 1                 #
                #                 D-45470 Muelheim/Ruhr                 #
                #                      Germany                          #
                #                                                       #
                #                  All rights reserved                  #
                #                        -***-                          #
                #########################################################


                         Program Version 6.0.0  -   RELEASE  -


 With contributions from (in alphabetic order):
   Daniel Aravena         : Magnetic Suceptibility
   Michael Atanasov       : Ab Initio Ligand Field Theory (pilot matlab implementation)
   Alexander A. Auer      : GIAO ZORA, VPT2 properties, NMR spectrum
   Ute Becker             : All parallelization in ORCA, NUMFREQ, NUMCALC
   Giovanni Bistoni       : ED, misc. LED, open-shell LED, HFLD
   Martin Brehm           : Molecular dynamics
   Dmytro Bykov           : pre 5.0 version of the SCF Hessian
   Marcos Casanova-Páez   : Triplet and SCS-CIS(D). UHF-(DLPNO)-IP/EA/STEOM-CCSD. UHF-CVS-IP/STEOM-CCSD
   Vijay G. Chilkuri      : MRCI spin determinant printing, contributions to CSF-ICE
   Pauline Colinet        : FMM embedding
   Dipayan Datta          : RHF DLPNO-CCSD density
   Achintya Kumar Dutta   : EOM-CC, STEOM-CC
   Nicolas Foglia         : Exact transition moments, OPA infrastructure, MCD improvements
   Dmitry Ganyushin       : Spin-Orbit,Spin-Spin,Magnetic field MRCI
   Miquel Garcia          : C-PCM and meta-GGA Hessian, CCSD/C-PCM, Gaussian charge scheme
   Tiago L. C. Gouveia    : GS-ROHF, GS-ROCIS
   Yang Guo               : DLPNO-NEVPT2, F12-NEVPT2, CIM, IAO-localization
   Andreas Hansen         : Spin unrestricted coupled pair/coupled cluster methods
   Ingolf Harden          : AUTO-CI MPn and infrastructure 
   Benjamin Helmich-Paris : MC-RPA, TRAH-(SCF,CASSCF), AVAS, COSX integrals, SCF dyn. polar.
   Lee Huntington         : MR-EOM, pCC
   Robert Izsak           : Overlap fitted RIJCOSX, COSX-SCS-MP3, EOM
   Riya Kayal             : Wick's Theorem for AUTO-CI, AUTO-CI UHF-CCSDT
   Emily Kempfer          : AUTO-CI, RHF CISDT and CCSDT
   Christian Kollmar      : KDIIS, OOCD, Brueckner-CCSD(T), CCSD density, CASPT2, CASPT2-K, improved NEVPT2
   Axel Koslowski         : Symmetry handling
   Simone Kossmann        : Meta GGA functionals, TD-DFT gradient, OOMP2, (MP2 Hessian; deprecated post 5.0)
   Lucas Lang             : DCDCAS
   Marvin Lechner         : AUTO-CI (C++ implementation), FIC-MRCC
   Spencer Leger          : CASSCF response
   Dagmar Lenk            : GEPOL surface, SMD, ORCA-2-JSON
   Dimitrios Liakos       : Extrapolation schemes; Compound Job, initial MDCI parallelization
   Dimitrios Manganas     : Further ROCIS development; embedding schemes. LFT, Crystal Embedding
   Dimitrios Pantazis     : SARC Basis sets
   Anastasios Papadopoulos: AUTO-CI, single reference methods and gradients
   Taras Petrenko         : pre 6.0 DFT Hessian and TD-DFT gradient, (ASA, deprecated), ECA, 1-Electron XAS/XES, NRVS
   Peter Pinski           : DLPNO-MP2, DLPNO-MP2 Gradient
   Christoph Reimann      : Effective Core Potentials
   Marius Retegan         : Local ZFS, SOC
   Christoph Riplinger    : Optimizer, TS searches, QM/MM, DLPNO-CCSD(T), (RO)-DLPNO pert. Triples
   Michael Roemelt        : Original ROCIS implementation
   Masaaki Saitow         : Open-shell DLPNO-CCSD energy and density
   Barbara Sandhoefer     : DKH picture change effects
   Kantharuban Sivalingam : CASSCF convergence/infrastructure, NEVPT2 and variants, FIC-MRCI
   Bernardo de Souza      : ESD, SOC TD-DFT
   Georgi Stoychev        : AutoAux, RI-MP2 NMR, DLPNO-MP2 response, X2C
   Van Anh Tran           : RI-MP2 g-tensors
   Willem Van den Heuvel  : Paramagnetic NMR
   Zikuan Wang            : NOTCH, Electric field optimization 
   Frank Wennmohs         : Technical directorship and infrastructure
   Hang Xu                : AUTO-CI-Response properties 


 We gratefully acknowledge several colleagues who have allowed us to
 interface, adapt or use parts of their codes:
   Stefan Grimme, W. Hujo, H. Kruse, P. Pracht,  : VdW corrections, initial TS optimization,
                  C. Bannwarth, S. Ehlert,         DFT functionals, gCP, sTDA/sTD-DF
                  L. Wittmann, M. Mueller
   Ed Valeev, F. Pavosevic, A. Kumar             : LibInt (2-el integral package), F12 methods
   Garnet Chan, S. Sharma, J. Yang, R. Olivares  : DMRG
   Ulf Ekstrom                                   : XCFun DFT Library
   Mihaly Kallay                                 : mrcc  (arbitrary order and MRCC methods)
   Frank Weinhold                                : gennbo (NPA and NBO analysis)
   Simon Mueller                                 : openCOSMO-RS
   Christopher J. Cramer and Donald G. Truhlar   : smd solvation model
   Lars Goerigk                                  : TD-DFT with DH, B97 family of functionals
   V. Asgeirsson, H. Jonsson                     : NEB implementation
   FAccTs GmbH                                   : IRC, NEB, NEB-TS, DLPNO-Multilevel, CI-OPT
                                                   MM, QMMM, 2- and 3-layer-ONIOM, Crystal-QMMM,
                                                   LR-CPCM, SF, NACMEs, symmetry and pop. for TD-DFT,
                                                   nearIR, NL-DFT gradient (VV10), updates on ESD,
                                                   ML-optimized integration grids, MBIS, APM,
                                                   GOAT, DOCKER, SOLVATOR, interface openCOSMO-RS
   S Lehtola, MJT Oliveira, MAL Marques          : LibXC Library
   Liviu Ungur et al                             : ANISO software


 Your calculation uses the libint2 library for the computation of 2-el integrals
 For citations please refer to: http://libint.valeyev.net

 Your ORCA version has been built with support for libXC version: 6.2.2
 For citations please refer to: https://libxc.gitlab.io

 This ORCA versions uses:
   CBLAS   interface :  Fast vector & matrix operations
   LAPACKE interface :  Fast linear algebra routines
   SCALAPACK package :  Parallel linear algebra routines
   Shared memory     :  Shared parallel matrices
   BLAS/LAPACK       :  OpenBLAS 0.3.27  USE64BITINT DYNAMIC_ARCH NO_AFFINITY Haswell SINGLE_THREADED
        Core in use  :  Haswell
   Copyright (c) 2011-2014, The OpenBLAS Project


NOTE: MaxCore=6000 MB was set to SCF,MP2,MDCI,CIPSI,MRCI and CIS
      => If you want to overwrite this, your respective input block should be placed after the MaxCore statement
================================================================================

----- Orbital basis set information -----
Your calculation utilizes the basis: cc-pVTZ 
       H, B-Ne : Obtained from the ccRepo (grant-hill.group.shef.ac.uk/ccrepo) Feb. 2017
                 T. H. Dunning, Jr., J. Chem. Phys. 90, 1007 (1989)
            He : Obtained from the ccRepo (grant-hill.group.shef.ac.uk/ccrepo) Feb. 2017
                 D. E. Woon, T. H. Dunning, Jr., J. Chem. Phys. 100, 2975 (1994)
  Li-Be, Na-Mg : Obtained from the ccRepo (grant-hill.group.shef.ac.uk/ccrepo) Feb. 2017
                 B. P. Prascher, D. E. Woon, K. A. Peterson, T. H. Dunning, Jr., A. K. Wilson, Theor. Chem. Acc. 128, 69 (2011)
         Al-Ar : Obtained from the ccRepo (grant-hill.group.shef.ac.uk/ccrepo) Feb. 2017
                 D. E. Woon, T. H. Dunning, Jr., J. Chem. Phys. 98, 1358 (1993)
            Ca : Obtained from the Peterson Research Group Website (tyr0.chem.wsu.edu/~kipeters) Feb. 2017
                 J. Koput, K. A. Peterson, J. Phys. Chem. 106, 9595 (2002)
         Sc-Zn : Obtained from the ccRepo (grant-hill.group.shef.ac.uk/ccrepo) Feb. 2017
                 N. B. Balabanov, K. A. Peterson, J. Chem. Phys. 123, 064107 (2005)
                 N. B. Balabanov, K. A. Peterson, J. Chem. Phys. 125, 074110 (2006)
         Ga-Kr : Obtained from the ccRepo (grant-hill.group.shef.ac.uk/ccrepo) Feb. 2017
                 A. K. Wilson, D. E. Woon, K. A. Peterson, T. H. Dunning, Jr., J. Chem. Phys. 110, 7667 (1999)
             Y : Obtained from the ccRepo (grant-hill.group.shef.ac.uk/ccrepo) Feb. 2017
                 K. A. Peterson, D. Figgen, M. Dolg, H. Stoll, J. Chem. Phys. 126, 124101 (2007)
        Ag, Au : Obtained from the Peterson Research Group Website (tyr0.chem.wsu.edu/~kipeters) Feb. 2017
                 K. A. Peterson, C. Puzzarini, Theor. Chem. Acc. 114, 283 (2005)

----- AuxJK basis set information -----
Your calculation utilizes the auxiliary basis: cc-pVTZ/JK 
  H, B-F, Al-Cl, Ga-Br : Obtained from the TURBOMOLE 7.0 basis set library

================================================================================
                                        WARNINGS
                       Please study these warnings very carefully!
================================================================================


================================================================================
                                       INPUT FILE
================================================================================
NAME = sp.inp
|  1> %maxcore  6000
|  2> %pal nprocs 8 end
|  3> ! HF RIJK cc-pVTZ cc-pVTZ/JK tightSCF noautostart miniprint nopop
|  4> %method
|  5> end
|  6> * xyz   0   1
|  7> O       0.000000000e+00   2.696547000e+00   1.395020000e-01
|  8> H      -8.425140000e-01   2.202380000e+00   2.595300000e-02
|  9> H      -1.286100000e-01   3.230175000e+00   9.277890000e-01
| 10> O      -2.335278000e+00  -1.348274000e+00   1.395020000e-01
| 11> H      -2.733108000e+00  -1.726467000e+00   9.277890000e-01
| 12> H      -1.486060000e+00  -1.830828000e+00   2.595300000e-02
| 13> O       2.335278000e+00   1.348274000e+00  -1.395020000e-01
| 14> H       1.486060000e+00   1.830828000e+00  -2.595300000e-02
| 15> H       2.733108000e+00   1.726467000e+00  -9.277890000e-01
| 16> O       0.000000000e+00  -2.696547000e+00  -1.395020000e-01
| 17> H       1.286100000e-01  -3.230175000e+00  -9.277890000e-01
| 18> H       8.425140000e-01  -2.202380000e+00  -2.595300000e-02
| 19> O       2.335278000e+00  -1.348274000e+00   1.395020000e-01
| 20> H       2.328574000e+00  -3.715510000e-01   2.595300000e-02
| 21> H       2.861718000e+00  -1.503708000e+00   9.277890000e-01
| 22> O      -2.335278000e+00   1.348274000e+00  -1.395020000e-01
| 23> H      -2.328574000e+00   3.715510000e-01  -2.595300000e-02
| 24> H      -2.861718000e+00   1.503708000e+00  -9.277890000e-01
| 25>  *
| 26> 
| 27>                          ****END OF INPUT****
================================================================================

                       ****************************
                       * Single Point Calculation *
                       ****************************

---------------------------------
CARTESIAN COORDINATES (ANGSTROEM)
---------------------------------
  O      0.000000    2.696547    0.139502
  H     -0.842514    2.202380    0.025953
  H     -0.128610    3.230175    0.927789
  O     -2.335278   -1.348274    0.139502
  H     -2.733108   -1.726467    0.927789
  H     -1.486060   -1.830828    0.025953
  O      2.335278    1.348274   -0.139502
  H      1.486060    1.830828   -0.025953
  H      2.733108    1.726467   -0.927789
  O      0.000000   -2.696547   -0.139502
  H      0.128610   -3.230175   -0.927789
  H      0.842514   -2.202380   -0.025953
  O      2.335278   -1.348274    0.139502
  H      2.328574   -0.371551    0.025953
  H      2.861718   -1.503708    0.927789
  O     -2.335278    1.348274   -0.139502
  H     -2.328574    0.371551   -0.025953
  H     -2.861718    1.503708   -0.927789

----------------------------
CARTESIAN COORDINATES (A.U.)
----------------------------
  NO LB      ZA    FRAG     MASS         X           Y           Z
   0 O     8.0000    0    15.999    0.000000    5.095735    0.263621
   1 H     1.0000    0     1.008   -1.592121    4.161895    0.049044
   2 H     1.0000    0     1.008   -0.243038    6.104146    1.753267
   3 O     8.0000    0    15.999   -4.413036   -2.547869    0.263621
   4 H     1.0000    0     1.008   -5.164826   -3.262550    1.753267
   5 H     1.0000    0     1.008   -2.808246   -3.459764    0.049044
   6 O     8.0000    0    15.999    4.413036    2.547869   -0.263621
   7 H     1.0000    0     1.008    2.808246    3.459764   -0.049044
   8 H     1.0000    0     1.008    5.164826    3.262550   -1.753267
   9 O     8.0000    0    15.999    0.000000   -5.095735   -0.263621
  10 H     1.0000    0     1.008    0.243038   -6.104146   -1.753267
  11 H     1.0000    0     1.008    1.592121   -4.161895   -0.049044
  12 O     8.0000    0    15.999    4.413036   -2.547869    0.263621
  13 H     1.0000    0     1.008    4.400367   -0.702130    0.049044
  14 H     1.0000    0     1.008    5.407863   -2.841596    1.753267
  15 O     8.0000    0    15.999   -4.413036    2.547869   -0.263621
  16 H     1.0000    0     1.008   -4.400367    0.702130   -0.049044
  17 H     1.0000    0     1.008   -5.407863    2.841596   -1.753267



           ************************************************************
           *        Program running with 8 parallel MPI-processes     *
           *              working on a common directory               *
           ************************************************************
------------------------------------------------------------------------------
                   ___                                                        
                  /   \      - P O W E R E D   B Y -                         
                 /     \                                                     
                 |  |  |   _    _      __       _____    __    __             
                 |  |  |  | |  | |    /  \     |  _  \  |  |  /  |          
                  \  \/   | |  | |   /    \    | | | |  |  | /  /          
                 / \  \   | |__| |  /  /\  \   | |_| |  |  |/  /          
                |  |  |   |  __  | /  /__\  \  |    /   |      \           
                |  |  |   | |  | | |   __   |  |    \   |  |\   \          
                \     /   | |  | | |  |  |  |  | |\  \  |  | \   \       
                 \___/    |_|  |_| |__|  |__|  |_| \__\ |__|  \__/        
                                                                              
                      - O R C A' S   B I G   F R I E N D -                    
                                      &                                       
                       - I N T E G R A L  F E E D E R -                       
                                                                              
 v1 FN, 2020, v2 2021, v3 2022-2024                                           
------------------------------------------------------------------------------


----------------------
SHARK INTEGRAL PACKAGE
----------------------

Number of atoms                             ...     18
Number of basis functions                   ...    384
Number of shells                            ...    168
Maximum angular momentum                    ...      3
Integral batch strategy                     ... SHARK/LIBINT Hybrid
RI-J (if used) integral strategy            ... SPLIT-RIJ (Revised 2003 algorithm where possible)
Printlevel                                  ...      1
Contraction scheme used                     ... PARTIAL GENERAL contraction
Prescreening option                         ... SCHWARTZ
   Thresh                                   ... 2.500e-11
   Tcut                                     ... 2.500e-12
   Tpresel                                  ... 2.500e-12 
Coulomb Range Separation                    ... NOT USED
Exchange Range Separation                   ... NOT USED
Multipole approximations                    ... NOT USED
Finite Nucleus Model                        ... NOT USED
CABS basis                                  ... NOT available
Auxiliary Coulomb fitting basis             ... NOT available
Auxiliary J/K fitting basis                 ... AVAILABLE
   # of basis functions in Aux-JK           ...    834
   # of shells in Aux-JK                    ...    270
   Maximum angular momentum in Aux-JK       ...      4
Auxiliary Correlation fitting basis         ... NOT available
Auxiliary 'external' fitting basis          ... NOT available

Checking pre-screening integrals            ... done (  0.0 sec) Dimension = 168
Save PGC pre-screening integrals            ... done (  0.0 sec) Dimension = 168
Calculate PGC overlap integrals             ... done (  0.0 sec) Dimension = 132
Calculating pre-screening integrals (ORCA)  ... done (  0.1 sec) Dimension = 132
Check shell pair data                       ... done (  0.0 sec)
Shell pair information
Shell pair cut-off parameter TPreSel        ...   2.5e-12
Total number of shell pairs                 ...     14196
Shell pairs after pre-screening             ...      8840
Total number of primitive shell pairs       ...     20964
Primitive shell pairs kept                  ...     11509
          la=0 lb=0:   2763 shell pairs
          la=1 lb=0:   2676 shell pairs
          la=1 lb=1:    676 shell pairs
          la=2 lb=0:   1296 shell pairs
          la=2 lb=1:    684 shell pairs
          la=2 lb=2:    181 shell pairs
          la=3 lb=0:    300 shell pairs
          la=3 lb=1:    174 shell pairs
          la=3 lb=2:     78 shell pairs
          la=3 lb=3:     12 shell pairs

Calculating one electron integrals          ... done (  0.0 sec)
Calculating RI/JK V-Matrix + Cholesky decomp... done (  0.0 sec)
Calculating Nuclear repulsion               ... done (  0.0 sec) ENN=    269.201854193332 Eh

Diagonalization of the overlap matrix:
Smallest eigenvalue                        ... 1.806e-03
Time for diagonalization                   ...    0.017 sec
Threshold for overlap eigenvalues          ... 1.000e-07
Number of eigenvalues below threshold      ... 0
Time for construction of square roots      ...    0.008 sec
Total time needed                          ...    0.027 sec

-------------------
DFT GRID GENERATION
-------------------

General Integration Accuracy     IntAcc      ... 4.388
Radial Grid Type                 RadialGrid  ... OptM3 with GC (2021)
Angular Grid (max. ang.)         AngularGrid ... 4 (Lebedev-302)
Angular grid pruning method      GridPruning ... 4 (adaptive)
Weight generation scheme         WeightScheme... mBecke (2022)
Basis function cutoff            BFCut       ... 1.0000e-11
Integration weight cutoff        WCut        ... 1.0000e-14
Partially contracted basis set               ... off
Rotationally invariant grid construction     ... off
Angular grids for H and He will be reduced by one unit

Total number of grid points                  ...    75806
Total number of batches                      ...     1188
Average number of points per batch           ...       63
Average number of grid points per atom       ...     4211

---------------------
SHARK GRID GENERATION
---------------------

General Integration Accuracy     IntAcc      ... 4.388
Radial Grid Type                 RadialGrid  ... OptM3 with GC (2021)
Angular Grid (max. ang.)         AngularGrid ... 4 (Lebedev-302)
Angular grid pruning method      GridPruning ... 4 (adaptive)
Weight generation scheme         WeightScheme... mBecke (2022)
Basis function cutoff            BFCut       ... 1.0000e-11
Integration weight cutoff        WCut        ... 1.0000e-14
Partially contracted basis set               ... off
Rotationally invariant grid construction     ... off
Angular grids for H and He will be reduced by one unit
Steep s-basis detected: some atoms will have their radial
                        grid points doubled.

Total number of grid points                  ...   112990
Total number of batches                      ...     1778
Average number of points per batch           ...       63
Average number of grid points per atom       ...     6277
Initializing property integral containers    ... done (  0.0 sec)

SHARK setup successfully completed in   2.1 seconds

Maximum memory used throughout the entire STARTUP-calculation: 34.7 MB


           ************************************************************
           *        Program running with 8 parallel MPI-processes     *
           *              working on a common directory               *
           ************************************************************
Loading Hartree-Fock densities                     ... done
Calculating cut-offs                               ... done
Initializing the effective Hamiltonian             ... done
Setting up the integral package (SHARK)            ... done
Starting the Coulomb interaction                   ... done (   0.1 sec)
Making the grid                                    ... done (   0.1 sec)
Mapping shells                                     ... done
Starting the XC term evaluation                    ... done (   0.0 sec)
Transforming the Hamiltonian                       ... done (   0.0 sec)
Diagonalizing the Hamiltonian                      ... done (   0.0 sec)
Back transforming the eigenvectors                 ... done (   0.0 sec)
Now organizing SCF variables                       ... done
             **** ENERGY FILE WAS UPDATED (sp.en.tmp) ****
Finished Guess after   0.4 sec
Maximum memory used throughout the entire GUESS-calculation: 17.6 MB


           ************************************************************
           *        Program running with 8 parallel MPI-processes     *
           *              working on a common directory               *
           ************************************************************
----------------------------------------D-I-I-S--------------------------------------------
Iteration    Energy (Eh)           Delta-E    RMSDP     MaxDP     DIISErr   Damp  Time(sec)
-------------------------------------------------------------------------------------------
    1    -455.8841811062656006     0.00e+00  9.61e-04  3.19e-02  3.58e-01  0.700   0.7
    2    -455.3419632070476837     5.42e-01  1.08e-03  3.87e-02  3.37e-01  0.700   0.7
                               ***Turning on AO-DIIS***
    3    -455.3966911683274930    -5.47e-02  8.07e-04  2.94e-02  1.97e-01  0.700   0.7
    4    -455.7439496089701834    -3.47e-01  2.66e-04  9.22e-03  8.54e-02  0.700   0.7
    5    -456.1883167755539716    -4.44e-01  5.55e-04  2.17e-02  4.99e-02  0.000   0.7
    6    -456.3899256049386395    -2.02e-01  1.55e-04  6.99e-03  3.29e-02  0.000   0.7
    7    -456.3932632846895103    -3.34e-03  1.27e-04  5.65e-03  2.63e-02  0.000   0.7
    8    -456.3956484307362871    -2.39e-03  9.89e-05  3.79e-03  1.69e-02  0.000   0.7
    9    -456.3967872508306982    -1.14e-03  1.03e-04  4.11e-03  8.76e-03  0.000   0.7
                              *** Initializing SOSCF ***
---------------------------------------S-O-S-C-F--------------------------------------
Iteration    Energy (Eh)           Delta-E    RMSDP     MaxDP     MaxGrad    Time(sec)
--------------------------------------------------------------------------------------
   10    -456.3972092190076637    -4.22e-04  1.30e-05  5.86e-04  5.64e-04     0.7
   11    -456.3972146821084834    -5.46e-06  5.13e-06  1.24e-04  1.04e-04     0.6
   12    -456.3972154185004229    -7.36e-07  3.31e-06  8.50e-05  3.42e-05     0.6
   13    -456.3972155376636692    -1.19e-07  6.61e-07  2.20e-05  1.31e-05     0.6
   14    -456.3972155473707062    -9.71e-09  1.39e-07  3.69e-06  2.95e-06     0.6
                 **** Energy Check signals convergence ****

               *****************************************************
               *                     SUCCESS                       *
               *           SCF CONVERGED AFTER  14 CYCLES          *
               *****************************************************

             **** ENERGY FILE WAS UPDATED (sp.en.tmp) ****

----------------
TOTAL SCF ENERGY
----------------

Total Energy       :       -456.39721554737071 Eh          -12419.19961 eV

Components:
Nuclear Repulsion  :        269.20185419333154 Eh            7325.35487 eV
Electronic Energy  :       -725.59906974070225 Eh          -19744.55448 eV
One Electron Energy:      -1167.25662872167277 Eh          -31762.66765 eV
Two Electron Energy:        441.65755898097052 Eh           12018.11317 eV

Virial components:
Potential Energy   :       -912.30955205488226 Eh          -24825.20500 eV
Kinetic Energy     :        455.91233650751150 Eh           12406.00539 eV
Virial Ratio       :          2.00106353568665

---------------
SCF CONVERGENCE
---------------

  Last Energy change         ...    9.7070e-09  Tolerance :   1.0000e-08
  Last MAX-Density change    ...    3.6920e-06  Tolerance :   1.0000e-07
  Last RMS-Density change    ...    1.3878e-07  Tolerance :   5.0000e-09
  Last DIIS Error            ...    5.6388e-04  Tolerance :   5.0000e-07
  Last Orbital Gradient      ...    2.9506e-06  Tolerance :   1.0000e-05
  Last Orbital Rotation      ...    2.4610e-06  Tolerance :   1.0000e-05


----------------
ORBITAL ENERGIES
----------------

  NO   OCC          E(Eh)            E(eV) 
   0   2.0000     -20.545132      -559.0615 
   1   2.0000     -20.545127      -559.0613 
   2   2.0000     -20.545127      -559.0613 
   3   2.0000     -20.545117      -559.0611 
   4   2.0000     -20.545117      -559.0611 
   5   2.0000     -20.545112      -559.0609 
   6   2.0000      -1.351400       -36.7735 
   7   2.0000      -1.343688       -36.5636 
   8   2.0000      -1.343688       -36.5636 
   9   2.0000      -1.327467       -36.1222 
  10   2.0000      -1.327467       -36.1222 
  11   2.0000      -1.318877       -35.8885 
  12   2.0000      -0.712527       -19.3889 
  13   2.0000      -0.709101       -19.2956 
  14   2.0000      -0.709100       -19.2956 
  15   2.0000      -0.707698       -19.2575 
  16   2.0000      -0.706960       -19.2373 
  17   2.0000      -0.706959       -19.2373 
  18   2.0000      -0.621364       -16.9082 
  19   2.0000      -0.599888       -16.3238 
  20   2.0000      -0.599888       -16.3238 
  21   2.0000      -0.552006       -15.0208 
  22   2.0000      -0.552006       -15.0208 
  23   2.0000      -0.529295       -14.4028 
  24   2.0000      -0.497978       -13.5507 
  25   2.0000      -0.497978       -13.5507 
  26   2.0000      -0.497653       -13.5418 
  27   2.0000      -0.497653       -13.5418 
  28   2.0000      -0.496629       -13.5140 
  29   2.0000      -0.492753       -13.4085 
  30   0.0000       0.134069         3.6482 
  31   0.0000       0.157230         4.2784 
  32   0.0000       0.157230         4.2784 
  33   0.0000       0.185846         5.0571 
  34   0.0000       0.185846         5.0571 
  35   0.0000       0.196568         5.3489 
  36   0.0000       0.257503         7.0070 
  37   0.0000       0.339917         9.2496 
  38   0.0000       0.339917         9.2496 
  39   0.0000       0.369149        10.0451 
  40   0.0000       0.369149        10.0451 
*Only the first 10 virtual orbitals were printed.
Total SCF time: 0 days 0 hours 0 min 9 sec 
Finished LeanSCF after   9.5 sec

Maximum memory used throughout the entire LEANSCF-calculation: 40.3 MB

-------------------------   --------------------
FINAL SINGLE POINT ENERGY      -456.397215547371
-------------------------   --------------------



           ************************************************************
           *        Program running with 8 parallel MPI-processes     *
           *              working on a common directory               *
           ************************************************************

------------------------------------------------------------------------------
                              ORCA PROPERTY CALCULATIONS
------------------------------------------------------------------------------

GBWName                                 ... sp.gbw
Number of atoms                         ...     18
Number of basis functions               ...    384
Max core memory                         ...   6000 MB

Electric properties:
Dipole moment                           ... YES
Quadrupole moment                       ...  NO
Static polarizability (Dipole/Dipole)   ...  NO
Static polarizability (Dipole/Quad.)    ...  NO
Static polarizability (Quad./Quad.)     ...  NO
Static polarizability (Velocity)        ...  NO

Atomic electric properties:
Dipole moment                           ...  NO
Quadrupole moment                       ...  NO
Static polarizability                   ...  NO

Choice of electric origin               ... Center of mass
Position of electric origin             ...     0.000000     0.000000     0.000000

General magnetic properties:
Magnetizability                         ...  NO

EPR properties:
g-Tensor (aka g-matrix)                 ...  NO
Zero-Field splitting spin-orbit         ...  NO
Zero-field splitting spin-spin          ...  NO
Hyperfine couplings                     ...  NO (   0 nuclei)
Quadrupole couplings                    ...  NO (   0 nuclei)
Contact density                         ...  NO (   0 nuclei)

NMR properties:
Chemical shifts                         ...  NO (   0 nuclei)
Spin-rotation constants                 ...  NO (   0 nuclei)
Spin-spin couplings                     ...  NO (   0 nuclei,    0 pairs)

Choice of magnetic origin               ... GIAO
Position of magnetic origin             ...     0.000000     0.000000     0.000000

Properties with geometric perturbations:
SCF Hessian                             ...  NO
IR spectrum                             ...  NO
VCD spectrum                            ...  NO
X-ray spectroscopy properties:
SCF XES/XAS/RIXS spectra                ...  NO


-------------
DIPOLE MOMENT
-------------

Method             : SCF
Type of density    : Electron Density
Multiplicity       :   1
Irrep              :   0
Energy             :  -456.3972155473707062 Eh
Relativity type    : 
Basis              : AO
                                X                 Y                 Z
Electronic contribution:     -0.000000000       0.000000000      -0.000000000
Nuclear contribution   :     -0.000000000      -0.000000000      -0.000000000
                        -----------------------------------------
Total Dipole Moment    :     -0.000000000       0.000000000      -0.000000000
                        -----------------------------------------
Magnitude (a.u.)       :      0.000000000
Magnitude (Debye)      :      0.000000001



--------------------
Rotational spectrum 
--------------------
 
Rotational constants in cm-1:             0.041675             0.041675             0.021209 
Rotational constants in MHz :          1249.396644          1249.396159           635.824399 

Dipole components along the rotational axes: 
x,y,z [a.u.] :     0.000000    -0.000000    -0.000000 
x,y,z [Debye]:     0.000000    -0.000000    -0.000000 

 

Dipole moment calculation done in   0.0 sec 

Maximum memory used throughout the entire PROP-calculation: 16.1 MB

--------------------------------
SUGGESTED CITATIONS FOR THIS RUN
--------------------------------

Below you find a list of papers that are relevant to this ORCA run
We neither can nor want to force you to cite these papers, but we appreciate if you do
You receive ORCA, which is the product of decades of hard work by many enthusiastic individuals, for free
The only thing we kindly ask in return is that you cite our papers,
We deeply appreciate it, if you show your appreciation for ORCA by not just citing the generic ORCA reference.

Please note that relegating all ORCA citations to the supporting information does *not* help us.
SI sections are not indexed - citations you put there will not count into any citation statistics
But we need these citations in order to attract the funding resources that allow us to do what we are doing

Therefore, if you are a happy ORCA user, please consider citing a few of the papers listed below in the main body of your paper

In addition to the list printed below, the program has created the file sp.bibtex that contains the list in bibtex format
You can import this file easily into all common literature databanks and citation aid programs


List of essential papers. We consider these as the minimum necessary citations

  1. Neese,F.
     Software update: the ORCA program system, version 5.0
     WIRES Comput. Molec. Sci., 2022 12(1)e1606
     doi.org/10.1002/wcms.1606

List of papers to cite with high priority. The work reported in these papers was absolutely
necessary for this run to complete.
Our perspective: the developers of density functionals and basis sets usually get cited in chemistry papers
Good! But without the algorithms to do something with them, the functionals or basis sets would not do anything.
Hence, in our opinion, the algorithm design and method developments papers are equally worthy of getting cited

  1. Neese,F.
     An improvement of the resolution of the identity approximation for the formation of the Coulomb matrix
     J. Comp. Chem., 2003 24(14)1740-1747
     doi.org/10.1002/jcc.10318
  2. Kossmann,S.; Neese,F.
     Comparison of two efficient approximate Hartee-Fock approaches
     Chem. Phys. Lett., 2009 481 240-243
     doi.org/10.1016/j.cplett.2009.09.073
  3. Neese,F.
     The SHARK Integral Generation and Digestion System
     J. Comp. Chem., 2022  1-16
     doi.org/10.1002/jcc.26942

List of suggested additional citations. These are papers that are important in the 'surrounding' of 
of this run, or papers that preceded the highly important papers. If you like your results we are grateful for a citation.

  1. Neese,F.
     The ORCA program system
     WIRES Comput. Molec. Sci., 2012 2(1)73-78
     doi.org/10.1002/wcms.81
  2. Neese,F.
     Software update: the ORCA program system, version 4.0
     WIRES Comput. Molec. Sci., 2018 8(1)1-6
     doi.org/10.1002/wcms.1327
  3. Neese,F.; Wennmohs,F.; Becker,U.; Riplinger,C.
     The ORCA quantum chemistry program package
     J. Chem. Phys., 2020 152 Art. No. L224108
     doi.org/10.1063/5.0004608

List of optional additional citations

  1. Neese,F.
     Approximate second-order SCF convergence for spin unrestricted wavefunctions
     Chem. Phys. Lett., 2000 325(1-3)93-98
     doi.org/10.1016/s0009-2614(00)00662-x

Timings for individual modules:

Sum of individual times          ...       12.738 sec (=   0.212 min)
Startup calculation              ...        2.285 sec (=   0.038 min)  17.9 %
SCF iterations                   ...       10.189 sec (=   0.170 min)  80.0 %
Property calculations            ...        0.263 sec (=   0.004 min)   2.1 %
                             ****ORCA TERMINATED NORMALLY****
TOTAL RUN TIME: 0 days 0 hours 0 minutes 13 seconds 98 msec
