
                                 *****************
                                 * O   R   C   A *
                                 *****************

                                            #,                                       
                                            ###                                      
                                            ####                                     
                                            #####                                    
                                            ######                                   
                                           ########,                                 
                                     ,,################,,,,,                         
                               ,,#################################,,                 
                          ,,##########################################,,             
                       ,#########################################, ''#####,          
                    ,#############################################,,   '####,        
                  ,##################################################,,,,####,       
                ,###########''''           ''''###############################       
              ,#####''   ,,,,##########,,,,          '''####'''          '####       
            ,##' ,,,,###########################,,,                        '##       
           ' ,,###''''                  '''############,,,                           
         ,,##''                                '''############,,,,        ,,,,,,###''
      ,#''                                            '''#######################'''  
     '                                                          ''''####''''         
             ,#######,   #######,   ,#######,      ##                                
            ,#'     '#,  ##    ##  ,#'     '#,    #''#        ,####,   ,####,        
            ##       ##  ##   ,#'  ##            #'  '#       #'       #'  '#        
            ##       ##  #######   ##           ,######,      #####,   #    #        
            '#,     ,#'  ##    ##  '#,     ,#' ,#      #,     #,   #   #,  ,#        
             '#######'   ##     ##  '#######'  #'      '#     '####' # '####'        



                #########################################################
                #                        -***-                          #
                #          Department of theory and spectroscopy        #
                #                                                       #
                #                      Frank Neese                      #
                #                                                       #
                #     Directorship, Architecture, Infrastructure        #
                #                    SHARK, DRIVERS                     #
                #        Core code/Algorithms in most modules           #
                #                                                       #
                #        Max Planck Institute fuer Kohlenforschung      #
                #                Kaiser Wilhelm Platz 1                 #
                #                 D-45470 Muelheim/Ruhr                 #
                #                      Germany                          #
                #                                                       #
                #                  All rights reserved                  #
                #                        -***-                          #
                #########################################################


                         Program Version 6.0.0  -   RELEASE  -


 With contributions from (in alphabetic order):
   Daniel Aravena         : Magnetic Suceptibility
   Michael Atanasov       : Ab Initio Ligand Field Theory (pilot matlab implementation)
   Alexander A. Auer      : GIAO ZORA, VPT2 properties, NMR spectrum
   Ute Becker             : All parallelization in ORCA, NUMFREQ, NUMCALC
   Giovanni Bistoni       : ED, misc. LED, open-shell LED, HFLD
   Martin Brehm           : Molecular dynamics
   Dmytro Bykov           : pre 5.0 version of the SCF Hessian
   Marcos Casanova-Páez   : Triplet and SCS-CIS(D). UHF-(DLPNO)-IP/EA/STEOM-CCSD. UHF-CVS-IP/STEOM-CCSD
   Vijay G. Chilkuri      : MRCI spin determinant printing, contributions to CSF-ICE
   Pauline Colinet        : FMM embedding
   Dipayan Datta          : RHF DLPNO-CCSD density
   Achintya Kumar Dutta   : EOM-CC, STEOM-CC
   Nicolas Foglia         : Exact transition moments, OPA infrastructure, MCD improvements
   Dmitry Ganyushin       : Spin-Orbit,Spin-Spin,Magnetic field MRCI
   Miquel Garcia          : C-PCM and meta-GGA Hessian, CCSD/C-PCM, Gaussian charge scheme
   Tiago L. C. Gouveia    : GS-ROHF, GS-ROCIS
   Yang Guo               : DLPNO-NEVPT2, F12-NEVPT2, CIM, IAO-localization
   Andreas Hansen         : Spin unrestricted coupled pair/coupled cluster methods
   Ingolf Harden          : AUTO-CI MPn and infrastructure 
   Benjamin Helmich-Paris : MC-RPA, TRAH-(SCF,CASSCF), AVAS, COSX integrals, SCF dyn. polar.
   Lee Huntington         : MR-EOM, pCC
   Robert Izsak           : Overlap fitted RIJCOSX, COSX-SCS-MP3, EOM
   Riya Kayal             : Wick's Theorem for AUTO-CI, AUTO-CI UHF-CCSDT
   Emily Kempfer          : AUTO-CI, RHF CISDT and CCSDT
   Christian Kollmar      : KDIIS, OOCD, Brueckner-CCSD(T), CCSD density, CASPT2, CASPT2-K, improved NEVPT2
   Axel Koslowski         : Symmetry handling
   Simone Kossmann        : Meta GGA functionals, TD-DFT gradient, OOMP2, (MP2 Hessian; deprecated post 5.0)
   Lucas Lang             : DCDCAS
   Marvin Lechner         : AUTO-CI (C++ implementation), FIC-MRCC
   Spencer Leger          : CASSCF response
   Dagmar Lenk            : GEPOL surface, SMD, ORCA-2-JSON
   Dimitrios Liakos       : Extrapolation schemes; Compound Job, initial MDCI parallelization
   Dimitrios Manganas     : Further ROCIS development; embedding schemes. LFT, Crystal Embedding
   Dimitrios Pantazis     : SARC Basis sets
   Anastasios Papadopoulos: AUTO-CI, single reference methods and gradients
   Taras Petrenko         : pre 6.0 DFT Hessian and TD-DFT gradient, (ASA, deprecated), ECA, 1-Electron XAS/XES, NRVS
   Peter Pinski           : DLPNO-MP2, DLPNO-MP2 Gradient
   Christoph Reimann      : Effective Core Potentials
   Marius Retegan         : Local ZFS, SOC
   Christoph Riplinger    : Optimizer, TS searches, QM/MM, DLPNO-CCSD(T), (RO)-DLPNO pert. Triples
   Michael Roemelt        : Original ROCIS implementation
   Masaaki Saitow         : Open-shell DLPNO-CCSD energy and density
   Barbara Sandhoefer     : DKH picture change effects
   Kantharuban Sivalingam : CASSCF convergence/infrastructure, NEVPT2 and variants, FIC-MRCI
   Bernardo de Souza      : ESD, SOC TD-DFT
   Georgi Stoychev        : AutoAux, RI-MP2 NMR, DLPNO-MP2 response, X2C
   Van Anh Tran           : RI-MP2 g-tensors
   Willem Van den Heuvel  : Paramagnetic NMR
   Zikuan Wang            : NOTCH, Electric field optimization 
   Frank Wennmohs         : Technical directorship and infrastructure
   Hang Xu                : AUTO-CI-Response properties 


 We gratefully acknowledge several colleagues who have allowed us to
 interface, adapt or use parts of their codes:
   Stefan Grimme, W. Hujo, H. Kruse, P. Pracht,  : VdW corrections, initial TS optimization,
                  C. Bannwarth, S. Ehlert,         DFT functionals, gCP, sTDA/sTD-DF
                  L. Wittmann, M. Mueller
   Ed Valeev, F. Pavosevic, A. Kumar             : LibInt (2-el integral package), F12 methods
   Garnet Chan, S. Sharma, J. Yang, R. Olivares  : DMRG
   Ulf Ekstrom                                   : XCFun DFT Library
   Mihaly Kallay                                 : mrcc  (arbitrary order and MRCC methods)
   Frank Weinhold                                : gennbo (NPA and NBO analysis)
   Simon Mueller                                 : openCOSMO-RS
   Christopher J. Cramer and Donald G. Truhlar   : smd solvation model
   Lars Goerigk                                  : TD-DFT with DH, B97 family of functionals
   V. Asgeirsson, H. Jonsson                     : NEB implementation
   FAccTs GmbH                                   : IRC, NEB, NEB-TS, DLPNO-Multilevel, CI-OPT
                                                   MM, QMMM, 2- and 3-layer-ONIOM, Crystal-QMMM,
                                                   LR-CPCM, SF, NACMEs, symmetry and pop. for TD-DFT,
                                                   nearIR, NL-DFT gradient (VV10), updates on ESD,
                                                   ML-optimized integration grids, MBIS, APM,
                                                   GOAT, DOCKER, SOLVATOR, interface openCOSMO-RS
   S Lehtola, MJT Oliveira, MAL Marques          : LibXC Library
   Liviu Ungur et al                             : ANISO software


 Your calculation uses the libint2 library for the computation of 2-el integrals
 For citations please refer to: http://libint.valeyev.net

 Your ORCA version has been built with support for libXC version: 6.2.2
 For citations please refer to: https://libxc.gitlab.io

 This ORCA versions uses:
   CBLAS   interface :  Fast vector & matrix operations
   LAPACKE interface :  Fast linear algebra routines
   SCALAPACK package :  Parallel linear algebra routines
   Shared memory     :  Shared parallel matrices
   BLAS/LAPACK       :  OpenBLAS 0.3.27  USE64BITINT DYNAMIC_ARCH NO_AFFINITY Haswell SINGLE_THREADED
        Core in use  :  Haswell
   Copyright (c) 2011-2014, The OpenBLAS Project


NOTE: MaxCore=6000 MB was set to SCF,MP2,MDCI,CIPSI,MRCI and CIS
      => If you want to overwrite this, your respective input block should be placed after the MaxCore statement
================================================================================

----- Orbital basis set information -----
Your calculation utilizes the basis: cc-pVTZ 
       H, B-Ne : Obtained from the ccRepo (grant-hill.group.shef.ac.uk/ccrepo) Feb. 2017
                 T. H. Dunning, Jr., J. Chem. Phys. 90, 1007 (1989)
            He : Obtained from the ccRepo (grant-hill.group.shef.ac.uk/ccrepo) Feb. 2017
                 D. E. Woon, T. H. Dunning, Jr., J. Chem. Phys. 100, 2975 (1994)
  Li-Be, Na-Mg : Obtained from the ccRepo (grant-hill.group.shef.ac.uk/ccrepo) Feb. 2017
                 B. P. Prascher, D. E. Woon, K. A. Peterson, T. H. Dunning, Jr., A. K. Wilson, Theor. Chem. Acc. 128, 69 (2011)
         Al-Ar : Obtained from the ccRepo (grant-hill.group.shef.ac.uk/ccrepo) Feb. 2017
                 D. E. Woon, T. H. Dunning, Jr., J. Chem. Phys. 98, 1358 (1993)
            Ca : Obtained from the Peterson Research Group Website (tyr0.chem.wsu.edu/~kipeters) Feb. 2017
                 J. Koput, K. A. Peterson, J. Phys. Chem. 106, 9595 (2002)
         Sc-Zn : Obtained from the ccRepo (grant-hill.group.shef.ac.uk/ccrepo) Feb. 2017
                 N. B. Balabanov, K. A. Peterson, J. Chem. Phys. 123, 064107 (2005)
                 N. B. Balabanov, K. A. Peterson, J. Chem. Phys. 125, 074110 (2006)
         Ga-Kr : Obtained from the ccRepo (grant-hill.group.shef.ac.uk/ccrepo) Feb. 2017
                 A. K. Wilson, D. E. Woon, K. A. Peterson, T. H. Dunning, Jr., J. Chem. Phys. 110, 7667 (1999)
             Y : Obtained from the ccRepo (grant-hill.group.shef.ac.uk/ccrepo) Feb. 2017
                 K. A. Peterson, D. Figgen, M. Dolg, H. Stoll, J. Chem. Phys. 126, 124101 (2007)
        Ag, Au : Obtained from the Peterson Research Group Website (tyr0.chem.wsu.edu/~kipeters) Feb. 2017
                 K. A. Peterson, C. Puzzarini, Theor. Chem. Acc. 114, 283 (2005)

----- AuxJK basis set information -----
Your calculation utilizes the auxiliary basis: cc-pVTZ/JK 
  H, B-F, Al-Cl, Ga-Br : Obtained from the TURBOMOLE 7.0 basis set library

================================================================================
                                        WARNINGS
                       Please study these warnings very carefully!
================================================================================


================================================================================
                                       INPUT FILE
================================================================================
NAME = sp.inp
|  1> %maxcore  6000
|  2> %pal nprocs 8 end
|  3> ! HF RIJK cc-pVTZ cc-pVTZ/JK tightSCF noautostart miniprint nopop
|  4> %method
|  5> end
|  6> * xyz   0   1
|  7> O       2.403205336e+00   1.327065937e+00  -4.231241288e-01
|  8> H       2.401010264e+00   3.610726372e-01  -5.799178960e-01
|  9> H       3.282470529e+00   1.527552998e+00  -9.144601800e-02
| 10> O       2.068203815e+00  -1.403501626e+00  -6.521599818e-01
| 11> H       1.280961321e+00  -1.567889828e+00  -9.729097410e-02
| 12> H       1.864469421e+00  -1.807462732e+00  -1.500192960e+00
| 13> O      -2.064119691e+00   1.520084401e+00  -4.985515003e-01
| 14> H      -1.268259852e+00   1.582725263e+00   8.372063660e-02
| 15> H      -1.852913461e+00   2.043180673e+00  -1.276440177e+00
| 16> O       8.217708960e-02   1.351190882e+00   1.131671873e+00
| 17> H       9.279954625e-01   1.465587373e+00   6.566010635e-01
| 18> H       5.811693900e-02   4.025609972e-01   1.329065291e+00
| 19> O      -2.318161714e+00  -1.155186876e+00  -5.453543706e-01
| 20> H      -2.309265436e+00  -1.705337451e-01  -6.170936879e-01
| 21> H      -3.229093787e+00  -1.385809650e+00  -3.443798320e-01
| 22> O      -1.643579518e-01  -1.559589949e+00   1.002652463e+00
| 23> H      -2.826661794e-01  -2.232573523e+00   1.678741737e+00
| 24> H      -1.012924185e+00  -1.523033534e+00   4.985855505e-01
| 25>  *
| 26> 
| 27>                          ****END OF INPUT****
================================================================================

                       ****************************
                       * Single Point Calculation *
                       ****************************

---------------------------------
CARTESIAN COORDINATES (ANGSTROEM)
---------------------------------
  O      2.403205    1.327066   -0.423124
  H      2.401010    0.361073   -0.579918
  H      3.282471    1.527553   -0.091446
  O      2.068204   -1.403502   -0.652160
  H      1.280961   -1.567890   -0.097291
  H      1.864469   -1.807463   -1.500193
  O     -2.064120    1.520084   -0.498552
  H     -1.268260    1.582725    0.083721
  H     -1.852913    2.043181   -1.276440
  O      0.082177    1.351191    1.131672
  H      0.927995    1.465587    0.656601
  H      0.058117    0.402561    1.329065
  O     -2.318162   -1.155187   -0.545354
  H     -2.309265   -0.170534   -0.617094
  H     -3.229094   -1.385810   -0.344380
  O     -0.164358   -1.559590    1.002652
  H     -0.282666   -2.232574    1.678742
  H     -1.012924   -1.523034    0.498586

----------------------------
CARTESIAN COORDINATES (A.U.)
----------------------------
  NO LB      ZA    FRAG     MASS         X           Y           Z
   0 O     8.0000    0    15.999    4.541400    2.507791   -0.799589
   1 H     1.0000    0     1.008    4.537252    0.682328   -1.095886
   2 H     1.0000    0     1.008    6.202970    2.886657   -0.172808
   3 O     8.0000    0    15.999    3.908339   -2.652234   -1.232404
   4 H     1.0000    0     1.008    2.420666   -2.962882   -0.183853
   5 H     1.0000    0     1.008    3.523337   -3.415610   -2.834954
   6 O     8.0000    0    15.999   -3.900621    2.872543   -0.942126
   7 H     1.0000    0     1.008   -2.396664    2.990917    0.158209
   8 H     1.0000    0     1.008   -3.501499    3.861052   -2.412122
   9 O     8.0000    0    15.999    0.155292    2.553381    2.138550
  10 H     1.0000    0     1.008    1.753657    2.769559    1.240796
  11 H     1.0000    0     1.008    0.109825    0.760730    2.511569
  12 O     8.0000    0    15.999   -4.380691   -2.182987   -1.030570
  13 H     1.0000    0     1.008   -4.363879   -0.322262   -1.166138
  14 H     1.0000    0     1.008   -6.102103   -2.618801   -0.650784
  15 O     8.0000    0    15.999   -0.310592   -2.947198    1.894739
  16 H     1.0000    0     1.008   -0.534162   -4.218953    3.172362
  17 H     1.0000    0     1.008   -1.914149   -2.878116    0.942190



           ************************************************************
           *        Program running with 8 parallel MPI-processes     *
           *              working on a common directory               *
           ************************************************************
------------------------------------------------------------------------------
                   ___                                                        
                  /   \      - P O W E R E D   B Y -                         
                 /     \                                                     
                 |  |  |   _    _      __       _____    __    __             
                 |  |  |  | |  | |    /  \     |  _  \  |  |  /  |          
                  \  \/   | |  | |   /    \    | | | |  |  | /  /          
                 / \  \   | |__| |  /  /\  \   | |_| |  |  |/  /          
                |  |  |   |  __  | /  /__\  \  |    /   |      \           
                |  |  |   | |  | | |   __   |  |    \   |  |\   \          
                \     /   | |  | | |  |  |  |  | |\  \  |  | \   \       
                 \___/    |_|  |_| |__|  |__|  |_| \__\ |__|  \__/        
                                                                              
                      - O R C A' S   B I G   F R I E N D -                    
                                      &                                       
                       - I N T E G R A L  F E E D E R -                       
                                                                              
 v1 FN, 2020, v2 2021, v3 2022-2024                                           
------------------------------------------------------------------------------


----------------------
SHARK INTEGRAL PACKAGE
----------------------

Number of atoms                             ...     18
Number of basis functions                   ...    384
Number of shells                            ...    168
Maximum angular momentum                    ...      3
Integral batch strategy                     ... SHARK/LIBINT Hybrid
RI-J (if used) integral strategy            ... SPLIT-RIJ (Revised 2003 algorithm where possible)
Printlevel                                  ...      1
Contraction scheme used                     ... PARTIAL GENERAL contraction
Prescreening option                         ... SCHWARTZ
   Thresh                                   ... 2.500e-11
   Tcut                                     ... 2.500e-12
   Tpresel                                  ... 2.500e-12 
Coulomb Range Separation                    ... NOT USED
Exchange Range Separation                   ... NOT USED
Multipole approximations                    ... NOT USED
Finite Nucleus Model                        ... NOT USED
CABS basis                                  ... NOT available
Auxiliary Coulomb fitting basis             ... NOT available
Auxiliary J/K fitting basis                 ... AVAILABLE
   # of basis functions in Aux-JK           ...    834
   # of shells in Aux-JK                    ...    270
   Maximum angular momentum in Aux-JK       ...      4
Auxiliary Correlation fitting basis         ... NOT available
Auxiliary 'external' fitting basis          ... NOT available

Checking pre-screening integrals            ... done (  0.0 sec) Dimension = 168
Save PGC pre-screening integrals            ... done (  0.0 sec) Dimension = 168
Calculate PGC overlap integrals             ... done (  0.0 sec) Dimension = 132
Calculating pre-screening integrals (ORCA)  ... done (  0.1 sec) Dimension = 132
Check shell pair data                       ... done (  0.0 sec)
Shell pair information
Shell pair cut-off parameter TPreSel        ...   2.5e-12
Total number of shell pairs                 ...     14196
Shell pairs after pre-screening             ...      9693
Total number of primitive shell pairs       ...     20964
Primitive shell pairs kept                  ...     12601
          la=0 lb=0:   2976 shell pairs
          la=1 lb=0:   2904 shell pairs
          la=1 lb=1:    744 shell pairs
          la=2 lb=0:   1401 shell pairs
          la=2 lb=1:    796 shell pairs
          la=2 lb=2:    229 shell pairs
          la=3 lb=0:    325 shell pairs
          la=3 lb=1:    203 shell pairs
          la=3 lb=2:    102 shell pairs
          la=3 lb=3:     13 shell pairs

Calculating one electron integrals          ... done (  0.0 sec)
Calculating RI/JK V-Matrix + Cholesky decomp... done (  0.0 sec)
Calculating Nuclear repulsion               ... done (  0.0 sec) ENN=    287.811141729496 Eh

Diagonalization of the overlap matrix:
Smallest eigenvalue                        ... 1.546e-03
Time for diagonalization                   ...    0.016 sec
Threshold for overlap eigenvalues          ... 1.000e-07
Number of eigenvalues below threshold      ... 0
Time for construction of square roots      ...    0.008 sec
Total time needed                          ...    0.027 sec

-------------------
DFT GRID GENERATION
-------------------

General Integration Accuracy     IntAcc      ... 4.388
Radial Grid Type                 RadialGrid  ... OptM3 with GC (2021)
Angular Grid (max. ang.)         AngularGrid ... 4 (Lebedev-302)
Angular grid pruning method      GridPruning ... 4 (adaptive)
Weight generation scheme         WeightScheme... mBecke (2022)
Basis function cutoff            BFCut       ... 1.0000e-11
Integration weight cutoff        WCut        ... 1.0000e-14
Partially contracted basis set               ... off
Rotationally invariant grid construction     ... off
Angular grids for H and He will be reduced by one unit

Total number of grid points                  ...    75594
Total number of batches                      ...     1192
Average number of points per batch           ...       63
Average number of grid points per atom       ...     4200

---------------------
SHARK GRID GENERATION
---------------------

General Integration Accuracy     IntAcc      ... 4.388
Radial Grid Type                 RadialGrid  ... OptM3 with GC (2021)
Angular Grid (max. ang.)         AngularGrid ... 4 (Lebedev-302)
Angular grid pruning method      GridPruning ... 4 (adaptive)
Weight generation scheme         WeightScheme... mBecke (2022)
Basis function cutoff            BFCut       ... 1.0000e-11
Integration weight cutoff        WCut        ... 1.0000e-14
Partially contracted basis set               ... off
Rotationally invariant grid construction     ... off
Angular grids for H and He will be reduced by one unit
Steep s-basis detected: some atoms will have their radial
                        grid points doubled.

Total number of grid points                  ...   112665
Total number of batches                      ...     1769
Average number of points per batch           ...       63
Average number of grid points per atom       ...     6259
Initializing property integral containers    ... done (  0.0 sec)

SHARK setup successfully completed in   2.2 seconds

Maximum memory used throughout the entire STARTUP-calculation: 35.8 MB


           ************************************************************
           *        Program running with 8 parallel MPI-processes     *
           *              working on a common directory               *
           ************************************************************
Loading Hartree-Fock densities                     ... done
Calculating cut-offs                               ... done
Initializing the effective Hamiltonian             ... done
Setting up the integral package (SHARK)            ... done
Starting the Coulomb interaction                   ... done (   0.1 sec)
Making the grid                                    ... done (   0.2 sec)
Mapping shells                                     ... done
Starting the XC term evaluation                    ... done (   0.0 sec)
Transforming the Hamiltonian                       ... done (   0.0 sec)
Diagonalizing the Hamiltonian                      ... done (   0.0 sec)
Back transforming the eigenvectors                 ... done (   0.0 sec)
Now organizing SCF variables                       ... done
             **** ENERGY FILE WAS UPDATED (sp.en.tmp) ****
Finished Guess after   0.4 sec
Maximum memory used throughout the entire GUESS-calculation: 19.0 MB


           ************************************************************
           *        Program running with 8 parallel MPI-processes     *
           *              working on a common directory               *
           ************************************************************
----------------------------------------D-I-I-S--------------------------------------------
Iteration    Energy (Eh)           Delta-E    RMSDP     MaxDP     DIISErr   Damp  Time(sec)
-------------------------------------------------------------------------------------------
    1    -455.8898858415845439     0.00e+00  9.59e-04  3.88e-02  3.62e-01  0.700   0.7
    2    -455.3542222258860761     5.36e-01  1.07e-03  4.69e-02  3.40e-01  0.700   0.7
                               ***Turning on AO-DIIS***
    3    -455.4086162859167075    -5.44e-02  7.92e-04  3.34e-02  1.98e-01  0.700   0.7
    4    -455.7519557183107395    -3.43e-01  2.57e-04  9.58e-03  8.55e-02  0.700   0.7
    5    -456.1894641161955519    -4.38e-01  5.58e-04  2.25e-02  4.98e-02  0.000   0.7
    6    -456.3883650585859755    -1.99e-01  1.60e-04  8.24e-03  3.69e-02  0.000   0.7
    7    -456.3919549557061259    -3.59e-03  1.25e-04  5.86e-03  2.75e-02  0.000   0.7
    8    -456.3944272645626938    -2.47e-03  9.75e-05  3.87e-03  1.71e-02  0.000   0.7
    9    -456.3955747590114811    -1.15e-03  9.58e-05  3.93e-03  8.89e-03  0.000   0.7
                              *** Initializing SOSCF ***
---------------------------------------S-O-S-C-F--------------------------------------
Iteration    Energy (Eh)           Delta-E    RMSDP     MaxDP     MaxGrad    Time(sec)
--------------------------------------------------------------------------------------
   10    -456.3959690425616031    -3.94e-04  1.32e-05  7.37e-04  5.87e-04     0.8
   11    -456.3959741301067083    -5.09e-06  5.67e-06  1.34e-04  7.32e-05     0.7
   12    -456.3959748631700108    -7.33e-07  3.68e-06  9.62e-05  2.30e-05     0.7
   13    -456.3959749887031307    -1.26e-07  6.53e-07  3.09e-05  9.84e-06     0.7
   14    -456.3959749983621919    -9.66e-09  1.54e-07  4.59e-06  2.60e-06     0.7
                 **** Energy Check signals convergence ****

               *****************************************************
               *                     SUCCESS                       *
               *           SCF CONVERGED AFTER  14 CYCLES          *
               *****************************************************

             **** ENERGY FILE WAS UPDATED (sp.en.tmp) ****

----------------
TOTAL SCF ENERGY
----------------

Total Energy       :       -456.39597499836219 Eh          -12419.16586 eV

Components:
Nuclear Repulsion  :        287.81114172949634 Eh            7831.73932 eV
Electronic Energy  :       -744.20711672785853 Eh          -20250.90518 eV
One Electron Energy:      -1204.17705087751187 Eh          -32767.32341 eV
Two Electron Energy:        459.96993414965334 Eh           12516.41823 eV

Virial components:
Potential Energy   :       -912.29289121817931 Eh          -24824.75164 eV
Kinetic Energy     :        455.89691621981711 Eh           12405.58578 eV
Virial Ratio       :          2.00109467460908

---------------
SCF CONVERGENCE
---------------

  Last Energy change         ...    9.6591e-09  Tolerance :   1.0000e-08
  Last MAX-Density change    ...    4.5898e-06  Tolerance :   1.0000e-07
  Last RMS-Density change    ...    1.5400e-07  Tolerance :   5.0000e-09
  Last DIIS Error            ...    5.8709e-04  Tolerance :   5.0000e-07
  Last Orbital Gradient      ...    2.5979e-06  Tolerance :   1.0000e-05
  Last Orbital Rotation      ...    2.5180e-06  Tolerance :   1.0000e-05


----------------
ORBITAL ENERGIES
----------------

  NO   OCC          E(Eh)            E(eV) 
   0   2.0000     -20.570273      -559.7456 
   1   2.0000     -20.556579      -559.3730 
   2   2.0000     -20.555697      -559.3490 
   3   2.0000     -20.545706      -559.0771 
   4   2.0000     -20.544686      -559.0493 
   5   2.0000     -20.531276      -558.6844 
   6   2.0000      -1.366860       -37.1941 
   7   2.0000      -1.350274       -36.7428 
   8   2.0000      -1.345510       -36.6132 
   9   2.0000      -1.335795       -36.3488 
  10   2.0000      -1.330818       -36.2134 
  11   2.0000      -1.314718       -35.7753 
  12   2.0000      -0.738134       -20.0857 
  13   2.0000      -0.720456       -19.6046 
  14   2.0000      -0.717624       -19.5275 
  15   2.0000      -0.708772       -19.2867 
  16   2.0000      -0.703491       -19.1430 
  17   2.0000      -0.689678       -18.7671 
  18   2.0000      -0.625140       -17.0109 
  19   2.0000      -0.601223       -16.3601 
  20   2.0000      -0.585827       -15.9412 
  21   2.0000      -0.577227       -15.7071 
  22   2.0000      -0.563242       -15.3266 
  23   2.0000      -0.543986       -14.8026 
  24   2.0000      -0.518447       -14.1076 
  25   2.0000      -0.505800       -13.7635 
  26   2.0000      -0.504131       -13.7181 
  27   2.0000      -0.496715       -13.5163 
  28   2.0000      -0.491946       -13.3865 
  29   2.0000      -0.478562       -13.0223 
  30   0.0000       0.122807         3.3417 
  31   0.0000       0.154993         4.2176 
  32   0.0000       0.162023         4.4089 
  33   0.0000       0.178680         4.8621 
  34   0.0000       0.182164         4.9569 
  35   0.0000       0.260985         7.1018 
  36   0.0000       0.309008         8.4085 
  37   0.0000       0.321603         8.7513 
  38   0.0000       0.325257         8.8507 
  39   0.0000       0.338338         9.2066 
  40   0.0000       0.340726         9.2716 
*Only the first 10 virtual orbitals were printed.
Total SCF time: 0 days 0 hours 0 min 10 sec 
Finished LeanSCF after  10.1 sec

Maximum memory used throughout the entire LEANSCF-calculation: 41.3 MB

-------------------------   --------------------
FINAL SINGLE POINT ENERGY      -456.395974998362
-------------------------   --------------------



           ************************************************************
           *        Program running with 8 parallel MPI-processes     *
           *              working on a common directory               *
           ************************************************************

------------------------------------------------------------------------------
                              ORCA PROPERTY CALCULATIONS
------------------------------------------------------------------------------

GBWName                                 ... sp.gbw
Number of atoms                         ...     18
Number of basis functions               ...    384
Max core memory                         ...   6000 MB

Electric properties:
Dipole moment                           ... YES
Quadrupole moment                       ...  NO
Static polarizability (Dipole/Dipole)   ...  NO
Static polarizability (Dipole/Quad.)    ...  NO
Static polarizability (Quad./Quad.)     ...  NO
Static polarizability (Velocity)        ...  NO

Atomic electric properties:
Dipole moment                           ...  NO
Quadrupole moment                       ...  NO
Static polarizability                   ...  NO

Choice of electric origin               ... Center of mass
Position of electric origin             ...    -0.000526    -0.000597    -0.000350

General magnetic properties:
Magnetizability                         ...  NO

EPR properties:
g-Tensor (aka g-matrix)                 ...  NO
Zero-Field splitting spin-orbit         ...  NO
Zero-field splitting spin-spin          ...  NO
Hyperfine couplings                     ...  NO (   0 nuclei)
Quadrupole couplings                    ...  NO (   0 nuclei)
Contact density                         ...  NO (   0 nuclei)

NMR properties:
Chemical shifts                         ...  NO (   0 nuclei)
Spin-rotation constants                 ...  NO (   0 nuclei)
Spin-spin couplings                     ...  NO (   0 nuclei,    0 pairs)

Choice of magnetic origin               ... GIAO
Position of magnetic origin             ...     0.000000     0.000000     0.000000

Properties with geometric perturbations:
SCF Hessian                             ...  NO
IR spectrum                             ...  NO
VCD spectrum                            ...  NO
X-ray spectroscopy properties:
SCF XES/XAS/RIXS spectra                ...  NO


-------------
DIPOLE MOMENT
-------------

Method             : SCF
Type of density    : Electron Density
Multiplicity       :   1
Irrep              :   0
Energy             :  -456.3959749983621919 Eh
Relativity type    : 
Basis              : AO
                                X                 Y                 Z
Electronic contribution:     -0.001119096       0.147026836       0.037019779
Nuclear contribution   :     -0.128177488      -1.219199085      -0.241647590
                        -----------------------------------------
Total Dipole Moment    :     -0.129296584      -1.072172249      -0.204627811
                        -----------------------------------------
Magnitude (a.u.)       :      1.099155803
Magnitude (Debye)      :      2.793832022



--------------------
Rotational spectrum 
--------------------
 
Rotational constants in cm-1:             0.060736             0.039607             0.029415 
Rotational constants in MHz :          1820.830928          1187.379843           881.831549 

Dipole components along the rotational axes: 
x,y,z [a.u.] :     0.172897    -1.066781    -0.200569 
x,y,z [Debye]:     0.439470    -2.711542    -0.509805 

 

Dipole moment calculation done in   0.0 sec 

Maximum memory used throughout the entire PROP-calculation: 17.1 MB

--------------------------------
SUGGESTED CITATIONS FOR THIS RUN
--------------------------------

Below you find a list of papers that are relevant to this ORCA run
We neither can nor want to force you to cite these papers, but we appreciate if you do
You receive ORCA, which is the product of decades of hard work by many enthusiastic individuals, for free
The only thing we kindly ask in return is that you cite our papers,
We deeply appreciate it, if you show your appreciation for ORCA by not just citing the generic ORCA reference.

Please note that relegating all ORCA citations to the supporting information does *not* help us.
SI sections are not indexed - citations you put there will not count into any citation statistics
But we need these citations in order to attract the funding resources that allow us to do what we are doing

Therefore, if you are a happy ORCA user, please consider citing a few of the papers listed below in the main body of your paper

In addition to the list printed below, the program has created the file sp.bibtex that contains the list in bibtex format
You can import this file easily into all common literature databanks and citation aid programs


List of essential papers. We consider these as the minimum necessary citations

  1. Neese,F.
     Software update: the ORCA program system, version 5.0
     WIRES Comput. Molec. Sci., 2022 12(1)e1606
     doi.org/10.1002/wcms.1606

List of papers to cite with high priority. The work reported in these papers was absolutely
necessary for this run to complete.
Our perspective: the developers of density functionals and basis sets usually get cited in chemistry papers
Good! But without the algorithms to do something with them, the functionals or basis sets would not do anything.
Hence, in our opinion, the algorithm design and method developments papers are equally worthy of getting cited

  1. Neese,F.
     An improvement of the resolution of the identity approximation for the formation of the Coulomb matrix
     J. Comp. Chem., 2003 24(14)1740-1747
     doi.org/10.1002/jcc.10318
  2. Kossmann,S.; Neese,F.
     Comparison of two efficient approximate Hartee-Fock approaches
     Chem. Phys. Lett., 2009 481 240-243
     doi.org/10.1016/j.cplett.2009.09.073
  3. Neese,F.
     The SHARK Integral Generation and Digestion System
     J. Comp. Chem., 2022  1-16
     doi.org/10.1002/jcc.26942

List of suggested additional citations. These are papers that are important in the 'surrounding' of 
of this run, or papers that preceded the highly important papers. If you like your results we are grateful for a citation.

  1. Neese,F.
     The ORCA program system
     WIRES Comput. Molec. Sci., 2012 2(1)73-78
     doi.org/10.1002/wcms.81
  2. Neese,F.
     Software update: the ORCA program system, version 4.0
     WIRES Comput. Molec. Sci., 2018 8(1)1-6
     doi.org/10.1002/wcms.1327
  3. Neese,F.; Wennmohs,F.; Becker,U.; Riplinger,C.
     The ORCA quantum chemistry program package
     J. Chem. Phys., 2020 152 Art. No. L224108
     doi.org/10.1063/5.0004608

List of optional additional citations

  1. Neese,F.
     Approximate second-order SCF convergence for spin unrestricted wavefunctions
     Chem. Phys. Lett., 2000 325(1-3)93-98
     doi.org/10.1016/s0009-2614(00)00662-x

Timings for individual modules:

Sum of individual times          ...       13.426 sec (=   0.224 min)
Startup calculation              ...        2.367 sec (=   0.039 min)  17.6 %
SCF iterations                   ...       10.787 sec (=   0.180 min)  80.3 %
Property calculations            ...        0.273 sec (=   0.005 min)   2.0 %
                             ****ORCA TERMINATED NORMALLY****
TOTAL RUN TIME: 0 days 0 hours 0 minutes 13 seconds 780 msec
