
                                 *****************
                                 * O   R   C   A *
                                 *****************

                                            #,                                       
                                            ###                                      
                                            ####                                     
                                            #####                                    
                                            ######                                   
                                           ########,                                 
                                     ,,################,,,,,                         
                               ,,#################################,,                 
                          ,,##########################################,,             
                       ,#########################################, ''#####,          
                    ,#############################################,,   '####,        
                  ,##################################################,,,,####,       
                ,###########''''           ''''###############################       
              ,#####''   ,,,,##########,,,,          '''####'''          '####       
            ,##' ,,,,###########################,,,                        '##       
           ' ,,###''''                  '''############,,,                           
         ,,##''                                '''############,,,,        ,,,,,,###''
      ,#''                                            '''#######################'''  
     '                                                          ''''####''''         
             ,#######,   #######,   ,#######,      ##                                
            ,#'     '#,  ##    ##  ,#'     '#,    #''#        ,####,   ,####,        
            ##       ##  ##   ,#'  ##            #'  '#       #'       #'  '#        
            ##       ##  #######   ##           ,######,      #####,   #    #        
            '#,     ,#'  ##    ##  '#,     ,#' ,#      #,     #,   #   #,  ,#        
             '#######'   ##     ##  '#######'  #'      '#     '####' # '####'        



                #########################################################
                #                        -***-                          #
                #          Department of theory and spectroscopy        #
                #                                                       #
                #                      Frank Neese                      #
                #                                                       #
                #     Directorship, Architecture, Infrastructure        #
                #                    SHARK, DRIVERS                     #
                #        Core code/Algorithms in most modules           #
                #                                                       #
                #        Max Planck Institute fuer Kohlenforschung      #
                #                Kaiser Wilhelm Platz 1                 #
                #                 D-45470 Muelheim/Ruhr                 #
                #                      Germany                          #
                #                                                       #
                #                  All rights reserved                  #
                #                        -***-                          #
                #########################################################


                         Program Version 6.0.0  -   RELEASE  -


 With contributions from (in alphabetic order):
   Daniel Aravena         : Magnetic Suceptibility
   Michael Atanasov       : Ab Initio Ligand Field Theory (pilot matlab implementation)
   Alexander A. Auer      : GIAO ZORA, VPT2 properties, NMR spectrum
   Ute Becker             : All parallelization in ORCA, NUMFREQ, NUMCALC
   Giovanni Bistoni       : ED, misc. LED, open-shell LED, HFLD
   Martin Brehm           : Molecular dynamics
   Dmytro Bykov           : pre 5.0 version of the SCF Hessian
   Marcos Casanova-Páez   : Triplet and SCS-CIS(D). UHF-(DLPNO)-IP/EA/STEOM-CCSD. UHF-CVS-IP/STEOM-CCSD
   Vijay G. Chilkuri      : MRCI spin determinant printing, contributions to CSF-ICE
   Pauline Colinet        : FMM embedding
   Dipayan Datta          : RHF DLPNO-CCSD density
   Achintya Kumar Dutta   : EOM-CC, STEOM-CC
   Nicolas Foglia         : Exact transition moments, OPA infrastructure, MCD improvements
   Dmitry Ganyushin       : Spin-Orbit,Spin-Spin,Magnetic field MRCI
   Miquel Garcia          : C-PCM and meta-GGA Hessian, CCSD/C-PCM, Gaussian charge scheme
   Tiago L. C. Gouveia    : GS-ROHF, GS-ROCIS
   Yang Guo               : DLPNO-NEVPT2, F12-NEVPT2, CIM, IAO-localization
   Andreas Hansen         : Spin unrestricted coupled pair/coupled cluster methods
   Ingolf Harden          : AUTO-CI MPn and infrastructure 
   Benjamin Helmich-Paris : MC-RPA, TRAH-(SCF,CASSCF), AVAS, COSX integrals, SCF dyn. polar.
   Lee Huntington         : MR-EOM, pCC
   Robert Izsak           : Overlap fitted RIJCOSX, COSX-SCS-MP3, EOM
   Riya Kayal             : Wick's Theorem for AUTO-CI, AUTO-CI UHF-CCSDT
   Emily Kempfer          : AUTO-CI, RHF CISDT and CCSDT
   Christian Kollmar      : KDIIS, OOCD, Brueckner-CCSD(T), CCSD density, CASPT2, CASPT2-K, improved NEVPT2
   Axel Koslowski         : Symmetry handling
   Simone Kossmann        : Meta GGA functionals, TD-DFT gradient, OOMP2, (MP2 Hessian; deprecated post 5.0)
   Lucas Lang             : DCDCAS
   Marvin Lechner         : AUTO-CI (C++ implementation), FIC-MRCC
   Spencer Leger          : CASSCF response
   Dagmar Lenk            : GEPOL surface, SMD, ORCA-2-JSON
   Dimitrios Liakos       : Extrapolation schemes; Compound Job, initial MDCI parallelization
   Dimitrios Manganas     : Further ROCIS development; embedding schemes. LFT, Crystal Embedding
   Dimitrios Pantazis     : SARC Basis sets
   Anastasios Papadopoulos: AUTO-CI, single reference methods and gradients
   Taras Petrenko         : pre 6.0 DFT Hessian and TD-DFT gradient, (ASA, deprecated), ECA, 1-Electron XAS/XES, NRVS
   Peter Pinski           : DLPNO-MP2, DLPNO-MP2 Gradient
   Christoph Reimann      : Effective Core Potentials
   Marius Retegan         : Local ZFS, SOC
   Christoph Riplinger    : Optimizer, TS searches, QM/MM, DLPNO-CCSD(T), (RO)-DLPNO pert. Triples
   Michael Roemelt        : Original ROCIS implementation
   Masaaki Saitow         : Open-shell DLPNO-CCSD energy and density
   Barbara Sandhoefer     : DKH picture change effects
   Kantharuban Sivalingam : CASSCF convergence/infrastructure, NEVPT2 and variants, FIC-MRCI
   Bernardo de Souza      : ESD, SOC TD-DFT
   Georgi Stoychev        : AutoAux, RI-MP2 NMR, DLPNO-MP2 response, X2C
   Van Anh Tran           : RI-MP2 g-tensors
   Willem Van den Heuvel  : Paramagnetic NMR
   Zikuan Wang            : NOTCH, Electric field optimization 
   Frank Wennmohs         : Technical directorship and infrastructure
   Hang Xu                : AUTO-CI-Response properties 


 We gratefully acknowledge several colleagues who have allowed us to
 interface, adapt or use parts of their codes:
   Stefan Grimme, W. Hujo, H. Kruse, P. Pracht,  : VdW corrections, initial TS optimization,
                  C. Bannwarth, S. Ehlert,         DFT functionals, gCP, sTDA/sTD-DF
                  L. Wittmann, M. Mueller
   Ed Valeev, F. Pavosevic, A. Kumar             : LibInt (2-el integral package), F12 methods
   Garnet Chan, S. Sharma, J. Yang, R. Olivares  : DMRG
   Ulf Ekstrom                                   : XCFun DFT Library
   Mihaly Kallay                                 : mrcc  (arbitrary order and MRCC methods)
   Frank Weinhold                                : gennbo (NPA and NBO analysis)
   Simon Mueller                                 : openCOSMO-RS
   Christopher J. Cramer and Donald G. Truhlar   : smd solvation model
   Lars Goerigk                                  : TD-DFT with DH, B97 family of functionals
   V. Asgeirsson, H. Jonsson                     : NEB implementation
   FAccTs GmbH                                   : IRC, NEB, NEB-TS, DLPNO-Multilevel, CI-OPT
                                                   MM, QMMM, 2- and 3-layer-ONIOM, Crystal-QMMM,
                                                   LR-CPCM, SF, NACMEs, symmetry and pop. for TD-DFT,
                                                   nearIR, NL-DFT gradient (VV10), updates on ESD,
                                                   ML-optimized integration grids, MBIS, APM,
                                                   GOAT, DOCKER, SOLVATOR, interface openCOSMO-RS
   S Lehtola, MJT Oliveira, MAL Marques          : LibXC Library
   Liviu Ungur et al                             : ANISO software


 Your calculation uses the libint2 library for the computation of 2-el integrals
 For citations please refer to: http://libint.valeyev.net

 Your ORCA version has been built with support for libXC version: 6.2.2
 For citations please refer to: https://libxc.gitlab.io

 This ORCA versions uses:
   CBLAS   interface :  Fast vector & matrix operations
   LAPACKE interface :  Fast linear algebra routines
   SCALAPACK package :  Parallel linear algebra routines
   Shared memory     :  Shared parallel matrices
   BLAS/LAPACK       :  OpenBLAS 0.3.27  USE64BITINT DYNAMIC_ARCH NO_AFFINITY Haswell SINGLE_THREADED
        Core in use  :  Haswell
   Copyright (c) 2011-2014, The OpenBLAS Project


NOTE: MaxCore=6000 MB was set to SCF,MP2,MDCI,CIPSI,MRCI and CIS
      => If you want to overwrite this, your respective input block should be placed after the MaxCore statement
================================================================================

----- Orbital basis set information -----
Your calculation utilizes the basis: cc-pVTZ 
       H, B-Ne : Obtained from the ccRepo (grant-hill.group.shef.ac.uk/ccrepo) Feb. 2017
                 T. H. Dunning, Jr., J. Chem. Phys. 90, 1007 (1989)
            He : Obtained from the ccRepo (grant-hill.group.shef.ac.uk/ccrepo) Feb. 2017
                 D. E. Woon, T. H. Dunning, Jr., J. Chem. Phys. 100, 2975 (1994)
  Li-Be, Na-Mg : Obtained from the ccRepo (grant-hill.group.shef.ac.uk/ccrepo) Feb. 2017
                 B. P. Prascher, D. E. Woon, K. A. Peterson, T. H. Dunning, Jr., A. K. Wilson, Theor. Chem. Acc. 128, 69 (2011)
         Al-Ar : Obtained from the ccRepo (grant-hill.group.shef.ac.uk/ccrepo) Feb. 2017
                 D. E. Woon, T. H. Dunning, Jr., J. Chem. Phys. 98, 1358 (1993)
            Ca : Obtained from the Peterson Research Group Website (tyr0.chem.wsu.edu/~kipeters) Feb. 2017
                 J. Koput, K. A. Peterson, J. Phys. Chem. 106, 9595 (2002)
         Sc-Zn : Obtained from the ccRepo (grant-hill.group.shef.ac.uk/ccrepo) Feb. 2017
                 N. B. Balabanov, K. A. Peterson, J. Chem. Phys. 123, 064107 (2005)
                 N. B. Balabanov, K. A. Peterson, J. Chem. Phys. 125, 074110 (2006)
         Ga-Kr : Obtained from the ccRepo (grant-hill.group.shef.ac.uk/ccrepo) Feb. 2017
                 A. K. Wilson, D. E. Woon, K. A. Peterson, T. H. Dunning, Jr., J. Chem. Phys. 110, 7667 (1999)
             Y : Obtained from the ccRepo (grant-hill.group.shef.ac.uk/ccrepo) Feb. 2017
                 K. A. Peterson, D. Figgen, M. Dolg, H. Stoll, J. Chem. Phys. 126, 124101 (2007)
        Ag, Au : Obtained from the Peterson Research Group Website (tyr0.chem.wsu.edu/~kipeters) Feb. 2017
                 K. A. Peterson, C. Puzzarini, Theor. Chem. Acc. 114, 283 (2005)

----- AuxJK basis set information -----
Your calculation utilizes the auxiliary basis: cc-pVTZ/JK 
  H, B-F, Al-Cl, Ga-Br : Obtained from the TURBOMOLE 7.0 basis set library

================================================================================
                                        WARNINGS
                       Please study these warnings very carefully!
================================================================================


================================================================================
                                       INPUT FILE
================================================================================
NAME = sp.inp
|  1> %maxcore  6000
|  2> %pal nprocs 8 end
|  3> ! B3LYP RIJK cc-pVTZ cc-pVTZ/JK tightSCF noautostart miniprint nopop
|  4> %method
|  5> end
|  6> * xyz   0   1
|  7> O      -1.386744106e+00  -2.136811963e+00  -3.756225893e-01
|  8> H      -1.773287157e+00  -3.002427295e+00  -2.236401630e-01
|  9> H      -4.863499895e-01  -2.178955208e+00   1.536017880e-02
| 10> O      -1.132191270e+00   2.212407755e+00   6.482442718e-01
| 11> H      -1.720716624e+00   1.502049242e+00   3.064145725e-01
| 12> H      -1.299291485e+00   2.238632116e+00   1.593790837e+00
| 13> O      -2.726234074e+00   2.257234831e-01  -2.955282394e-01
| 14> H      -3.065099368e+00   3.594784483e-01  -1.184686006e+00
| 15> H      -2.273619036e+00  -6.453266868e-01  -3.243346978e-01
| 16> O       1.386742207e+00   2.136810876e+00  -3.756286314e-01
| 17> H       4.863369901e-01   2.178970634e+00   1.532571880e-02
| 18> H       1.773293424e+00   3.002422055e+00  -2.236436139e-01
| 19> O       1.132157260e+00  -2.212372184e+00   6.483234883e-01
| 20> H       1.720691645e+00  -1.502033628e+00   3.064678630e-01
| 21> H       1.299221225e+00  -2.238531088e+00   1.593878340e+00
| 22> O       2.726213839e+00  -2.257363978e-01  -2.955339749e-01
| 23> H       2.273604040e+00   6.453160882e-01  -3.243422191e-01
| 24> H       3.065036457e+00  -3.595167569e-01  -1.184704192e+00
| 25>  *
| 26> 
| 27>                          ****END OF INPUT****
================================================================================

                       ****************************
                       * Single Point Calculation *
                       ****************************

---------------------------------
CARTESIAN COORDINATES (ANGSTROEM)
---------------------------------
  O     -1.386744   -2.136812   -0.375623
  H     -1.773287   -3.002427   -0.223640
  H     -0.486350   -2.178955    0.015360
  O     -1.132191    2.212408    0.648244
  H     -1.720717    1.502049    0.306415
  H     -1.299291    2.238632    1.593791
  O     -2.726234    0.225723   -0.295528
  H     -3.065099    0.359478   -1.184686
  H     -2.273619   -0.645327   -0.324335
  O      1.386742    2.136811   -0.375629
  H      0.486337    2.178971    0.015326
  H      1.773293    3.002422   -0.223644
  O      1.132157   -2.212372    0.648323
  H      1.720692   -1.502034    0.306468
  H      1.299221   -2.238531    1.593878
  O      2.726214   -0.225736   -0.295534
  H      2.273604    0.645316   -0.324342
  H      3.065036   -0.359517   -1.184704

----------------------------
CARTESIAN COORDINATES (A.U.)
----------------------------
  NO LB      ZA    FRAG     MASS         X           Y           Z
   0 O     8.0000    0    15.999   -2.620567   -4.037989   -0.709824
   1 H     1.0000    0     1.008   -3.351027   -5.673765   -0.422619
   2 H     1.0000    0     1.008   -0.919068   -4.117629    0.029027
   3 O     8.0000    0    15.999   -2.139531    4.180845    1.225004
   4 H     1.0000    0     1.008   -3.251683    2.838462    0.579040
   5 H     1.0000    0     1.008   -2.455305    4.230402    3.011828
   6 O     8.0000    0    15.999   -5.151836    0.426556   -0.558467
   7 H     1.0000    0     1.008   -5.792198    0.679316   -2.238732
   8 H     1.0000    0     1.008   -4.296517   -1.219491   -0.612904
   9 O     8.0000    0    15.999    2.620563    4.037987   -0.709835
  10 H     1.0000    0     1.008    0.919044    4.117658    0.028961
  11 H     1.0000    0     1.008    3.351039    5.673755   -0.422625
  12 O     8.0000    0    15.999    2.139467   -4.180778    1.225154
  13 H     1.0000    0     1.008    3.251636   -2.838432    0.579140
  14 H     1.0000    0     1.008    2.455172   -4.230211    3.011994
  15 O     8.0000    0    15.999    5.151798   -0.426580   -0.558478
  16 H     1.0000    0     1.008    4.296489    1.219471   -0.612918
  17 H     1.0000    0     1.008    5.792079   -0.679388   -2.238766



           ************************************************************
           *        Program running with 8 parallel MPI-processes     *
           *              working on a common directory               *
           ************************************************************
------------------------------------------------------------------------------
                   ___                                                        
                  /   \      - P O W E R E D   B Y -                         
                 /     \                                                     
                 |  |  |   _    _      __       _____    __    __             
                 |  |  |  | |  | |    /  \     |  _  \  |  |  /  |          
                  \  \/   | |  | |   /    \    | | | |  |  | /  /          
                 / \  \   | |__| |  /  /\  \   | |_| |  |  |/  /          
                |  |  |   |  __  | /  /__\  \  |    /   |      \           
                |  |  |   | |  | | |   __   |  |    \   |  |\   \          
                \     /   | |  | | |  |  |  |  | |\  \  |  | \   \       
                 \___/    |_|  |_| |__|  |__|  |_| \__\ |__|  \__/        
                                                                              
                      - O R C A' S   B I G   F R I E N D -                    
                                      &                                       
                       - I N T E G R A L  F E E D E R -                       
                                                                              
 v1 FN, 2020, v2 2021, v3 2022-2024                                           
------------------------------------------------------------------------------


----------------------
SHARK INTEGRAL PACKAGE
----------------------

Number of atoms                             ...     18
Number of basis functions                   ...    384
Number of shells                            ...    168
Maximum angular momentum                    ...      3
Integral batch strategy                     ... SHARK/LIBINT Hybrid
RI-J (if used) integral strategy            ... SPLIT-RIJ (Revised 2003 algorithm where possible)
Printlevel                                  ...      1
Contraction scheme used                     ... PARTIAL GENERAL contraction
Prescreening option                         ... SCHWARTZ
   Thresh                                   ... 2.500e-11
   Tcut                                     ... 2.500e-12
   Tpresel                                  ... 2.500e-12 
Coulomb Range Separation                    ... NOT USED
Exchange Range Separation                   ... NOT USED
Multipole approximations                    ... NOT USED
Finite Nucleus Model                        ... NOT USED
CABS basis                                  ... NOT available
Auxiliary Coulomb fitting basis             ... NOT available
Auxiliary J/K fitting basis                 ... AVAILABLE
   # of basis functions in Aux-JK           ...    834
   # of shells in Aux-JK                    ...    270
   Maximum angular momentum in Aux-JK       ...      4
Auxiliary Correlation fitting basis         ... NOT available
Auxiliary 'external' fitting basis          ... NOT available

Checking pre-screening integrals            ... done (  0.0 sec) Dimension = 168
Save PGC pre-screening integrals            ... done (  0.0 sec) Dimension = 168
Calculate PGC overlap integrals             ... done (  0.0 sec) Dimension = 132
Calculating pre-screening integrals (ORCA)  ... done (  0.1 sec) Dimension = 132
Check shell pair data                       ... done (  0.0 sec)
Shell pair information
Shell pair cut-off parameter TPreSel        ...   2.5e-12
Total number of shell pairs                 ...     14196
Shell pairs after pre-screening             ...      8998
Total number of primitive shell pairs       ...     20964
Primitive shell pairs kept                  ...     11669
          la=0 lb=0:   2816 shell pairs
          la=1 lb=0:   2714 shell pairs
          la=1 lb=1:    692 shell pairs
          la=2 lb=0:   1306 shell pairs
          la=2 lb=1:    706 shell pairs
          la=2 lb=2:    188 shell pairs
          la=3 lb=0:    302 shell pairs
          la=3 lb=1:    176 shell pairs
          la=3 lb=2:     86 shell pairs
          la=3 lb=3:     12 shell pairs

Calculating one electron integrals          ... done (  0.0 sec)
Calculating RI/JK V-Matrix + Cholesky decomp... done (  0.0 sec)
Calculating Nuclear repulsion               ... done (  0.0 sec) ENN=    271.854234383145 Eh

Diagonalization of the overlap matrix:
Smallest eigenvalue                        ... 1.738e-03
Time for diagonalization                   ...    0.017 sec
Threshold for overlap eigenvalues          ... 1.000e-07
Number of eigenvalues below threshold      ... 0
Time for construction of square roots      ...    0.008 sec
Total time needed                          ...    0.028 sec

-------------------
DFT GRID GENERATION
-------------------

General Integration Accuracy     IntAcc      ... 4.388
Radial Grid Type                 RadialGrid  ... OptM3 with GC (2021)
Angular Grid (max. ang.)         AngularGrid ... 4 (Lebedev-302)
Angular grid pruning method      GridPruning ... 4 (adaptive)
Weight generation scheme         WeightScheme... mBecke (2022)
Basis function cutoff            BFCut       ... 1.0000e-11
Integration weight cutoff        WCut        ... 1.0000e-14
Partially contracted basis set               ... off
Rotationally invariant grid construction     ... off
Angular grids for H and He will be reduced by one unit

Total number of grid points                  ...    75810
Total number of batches                      ...     1190
Average number of points per batch           ...       63
Average number of grid points per atom       ...     4212

---------------------
SHARK GRID GENERATION
---------------------

General Integration Accuracy     IntAcc      ... 4.388
Radial Grid Type                 RadialGrid  ... OptM3 with GC (2021)
Angular Grid (max. ang.)         AngularGrid ... 4 (Lebedev-302)
Angular grid pruning method      GridPruning ... 4 (adaptive)
Weight generation scheme         WeightScheme... mBecke (2022)
Basis function cutoff            BFCut       ... 1.0000e-11
Integration weight cutoff        WCut        ... 1.0000e-14
Partially contracted basis set               ... off
Rotationally invariant grid construction     ... off
Angular grids for H and He will be reduced by one unit
Steep s-basis detected: some atoms will have their radial
                        grid points doubled.

Total number of grid points                  ...   112990
Total number of batches                      ...     1776
Average number of points per batch           ...       63
Average number of grid points per atom       ...     6277
Initializing property integral containers    ... done (  0.0 sec)

SHARK setup successfully completed in   1.9 seconds

Maximum memory used throughout the entire STARTUP-calculation: 34.9 MB


           ************************************************************
           *        Program running with 8 parallel MPI-processes     *
           *              working on a common directory               *
           ************************************************************
Loading Hartree-Fock densities                     ... done
Calculating cut-offs                               ... done
Initializing the effective Hamiltonian             ... done
Setting up the integral package (SHARK)            ... done
Starting the Coulomb interaction                   ... done (   0.1 sec)
Making the grid                                    ... done (   0.1 sec)
Mapping shells                                     ... done
Starting the XC term evaluation                    ... done (   0.0 sec)
  promolecular density results
     # of electrons  =     59.989830339
     EX              =    -52.743878142
     EC              =     -2.050650239
     EX+EC           =    -54.794528381
Transforming the Hamiltonian                       ... done (   0.0 sec)
Diagonalizing the Hamiltonian                      ... done (   0.0 sec)
Back transforming the eigenvectors                 ... done (   0.0 sec)
Now organizing SCF variables                       ... done
             **** ENERGY FILE WAS UPDATED (sp.en.tmp) ****
Finished Guess after   0.4 sec
Maximum memory used throughout the entire GUESS-calculation: 17.7 MB


           ************************************************************
           *        Program running with 8 parallel MPI-processes     *
           *              working on a common directory               *
           ************************************************************
----------------------------------------D-I-I-S--------------------------------------------
Iteration    Energy (Eh)           Delta-E    RMSDP     MaxDP     DIISErr   Damp  Time(sec)
-------------------------------------------------------------------------------------------
    1    -458.0957333051999285     0.00e+00  1.66e-03  6.51e-02  3.49e-01  0.700   0.8
    2    -458.0969518552917634    -1.22e-03  1.22e-03  4.53e-02  1.80e-01  0.700   0.9
                               ***Turning on AO-DIIS***
    3    -458.2669728310456776    -1.70e-01  3.41e-04  8.59e-03  3.77e-02  0.700   0.8
    4    -458.4535685500552518    -1.87e-01  2.91e-04  8.30e-03  1.48e-02  0.000   0.8
    5    -458.6167473491969986    -1.63e-01  2.06e-04  5.18e-03  1.93e-02  0.000   0.8
    6    -458.6185545353939688    -1.81e-03  8.20e-05  2.34e-03  8.27e-03  0.000   0.8
    7    -458.6188758752864487    -3.21e-04  3.65e-05  1.30e-03  3.44e-03  0.000   0.8
                              *** Initializing SOSCF ***
---------------------------------------S-O-S-C-F--------------------------------------
Iteration    Energy (Eh)           Delta-E    RMSDP     MaxDP     MaxGrad    Time(sec)
--------------------------------------------------------------------------------------
    8    -458.6189356645789985    -5.98e-05  1.65e-05  6.51e-04  1.31e-03     0.9
    9    -458.6189450045375224    -9.34e-06  1.13e-05  4.32e-04  1.21e-04     0.8
   10    -458.6189448306583927     1.74e-07  3.66e-06  1.56e-04  1.15e-04     0.8
   11    -458.6189457084707328    -8.78e-07  4.74e-07  1.52e-05  5.99e-06     0.8
   12    -458.6189457096400020    -1.17e-09  1.58e-07  4.56e-06  3.48e-06     0.8
                 **** Energy Check signals convergence ****

               *****************************************************
               *                     SUCCESS                       *
               *           SCF CONVERGED AFTER  12 CYCLES          *
               *****************************************************

             **** ENERGY FILE WAS UPDATED (sp.en.tmp) ****

----------------
TOTAL SCF ENERGY
----------------

Total Energy       :       -458.61894570964000 Eh          -12479.65597 eV

Components:
Nuclear Repulsion  :        271.85423438314547 Eh            7397.52980 eV
Electronic Energy  :       -730.47318009278547 Eh          -19877.18577 eV
One Electron Energy:      -1172.71967778034377 Eh          -31911.32477 eV
Two Electron Energy:        442.24649768755830 Eh           12034.13901 eV

Virial components:
Potential Energy   :       -914.93713816387390 Eh          -24896.70525 eV
Kinetic Energy     :        456.31819245423389 Eh           12417.04929 eV
Virial Ratio       :          2.00504199327016

DFT components:
N(Alpha)           :       30.000024383924 electrons
N(Beta)            :       30.000024383924 electrons
N(Total)           :       60.000048767848 electrons
E(X)               :      -42.729954042843 Eh       
E(C)               :       -2.442284302909 Eh       
E(XC)              :      -45.172238345752 Eh       

---------------
SCF CONVERGENCE
---------------

  Last Energy change         ...    1.1693e-09  Tolerance :   1.0000e-08
  Last MAX-Density change    ...    4.5550e-06  Tolerance :   1.0000e-07
  Last RMS-Density change    ...    1.5763e-07  Tolerance :   5.0000e-09
  Last DIIS Error            ...    1.3089e-03  Tolerance :   5.0000e-07
  Last Orbital Gradient      ...    3.4799e-06  Tolerance :   1.0000e-05
  Last Orbital Rotation      ...    2.6212e-06  Tolerance :   1.0000e-05


----------------
ORBITAL ENERGIES
----------------

  NO   OCC          E(Eh)            E(eV) 
   0   2.0000     -19.112742      -520.0842 
   1   2.0000     -19.112742      -520.0842 
   2   2.0000     -19.111493      -520.0502 
   3   2.0000     -19.111492      -520.0501 
   4   2.0000     -19.111146      -520.0407 
   5   2.0000     -19.111146      -520.0407 
   6   2.0000      -1.010199       -27.4889 
   7   2.0000      -1.004303       -27.3285 
   8   2.0000      -1.003103       -27.2958 
   9   2.0000      -0.990641       -26.9567 
  10   2.0000      -0.989803       -26.9339 
  11   2.0000      -0.983153       -26.7529 
  12   2.0000      -0.524831       -14.2814 
  13   2.0000      -0.523920       -14.2566 
  14   2.0000      -0.520922       -14.1750 
  15   2.0000      -0.520746       -14.1702 
  16   2.0000      -0.517522       -14.0825 
  17   2.0000      -0.516697       -14.0600 
  18   2.0000      -0.425974       -11.5913 
  19   2.0000      -0.408332       -11.1113 
  20   2.0000      -0.405641       -11.0381 
  21   2.0000      -0.367676       -10.0050 
  22   2.0000      -0.364665        -9.9230 
  23   2.0000      -0.344798        -9.3824 
  24   2.0000      -0.311131        -8.4663 
  25   2.0000      -0.308671        -8.3994 
  26   2.0000      -0.307925        -8.3791 
  27   2.0000      -0.304739        -8.2924 
  28   2.0000      -0.301815        -8.2128 
  29   2.0000      -0.300996        -8.1905 
  30   0.0000       0.016239         0.4419 
  31   0.0000       0.041863         1.1391 
  32   0.0000       0.044426         1.2089 
  33   0.0000       0.067993         1.8502 
  34   0.0000       0.071471         1.9448 
  35   0.0000       0.083674         2.2769 
  36   0.0000       0.153695         4.1823 
  37   0.0000       0.200951         5.4682 
  38   0.0000       0.207876         5.6566 
  39   0.0000       0.230722         6.2783 
  40   0.0000       0.250590         6.8189 
*Only the first 10 virtual orbitals were printed.
Total SCF time: 0 days 0 hours 0 min 10 sec 
Finished LeanSCF after  10.1 sec

Maximum memory used throughout the entire LEANSCF-calculation: 40.5 MB

-------------------------   --------------------
FINAL SINGLE POINT ENERGY      -458.618945709640
-------------------------   --------------------



           ************************************************************
           *        Program running with 8 parallel MPI-processes     *
           *              working on a common directory               *
           ************************************************************

------------------------------------------------------------------------------
                              ORCA PROPERTY CALCULATIONS
------------------------------------------------------------------------------

GBWName                                 ... sp.gbw
Number of atoms                         ...     18
Number of basis functions               ...    384
Max core memory                         ...   6000 MB

Electric properties:
Dipole moment                           ... YES
Quadrupole moment                       ...  NO
Static polarizability (Dipole/Dipole)   ...  NO
Static polarizability (Dipole/Quad.)    ...  NO
Static polarizability (Quad./Quad.)     ...  NO
Static polarizability (Velocity)        ...  NO

Atomic electric properties:
Dipole moment                           ...  NO
Quadrupole moment                       ...  NO
Static polarizability                   ...  NO

Choice of electric origin               ... Center of mass
Position of electric origin             ...    -0.000019     0.000007    -0.006348

General magnetic properties:
Magnetizability                         ...  NO

EPR properties:
g-Tensor (aka g-matrix)                 ...  NO
Zero-Field splitting spin-orbit         ...  NO
Zero-field splitting spin-spin          ...  NO
Hyperfine couplings                     ...  NO (   0 nuclei)
Quadrupole couplings                    ...  NO (   0 nuclei)
Contact density                         ...  NO (   0 nuclei)

NMR properties:
Chemical shifts                         ...  NO (   0 nuclei)
Spin-rotation constants                 ...  NO (   0 nuclei)
Spin-spin couplings                     ...  NO (   0 nuclei,    0 pairs)

Choice of magnetic origin               ... GIAO
Position of magnetic origin             ...     0.000000     0.000000     0.000000

Properties with geometric perturbations:
SCF Hessian                             ...  NO
IR spectrum                             ...  NO
VCD spectrum                            ...  NO
X-ray spectroscopy properties:
SCF XES/XAS/RIXS spectra                ...  NO


-------------
DIPOLE MOMENT
-------------

Method             : SCF
Type of density    : Electron Density
Multiplicity       :   1
Irrep              :   0
Energy             :  -458.6189457096400020 Eh
Relativity type    : 
Basis              : AO
                                X                 Y                 Z
Electronic contribution:      0.000017593      -0.000009798      -0.117829167
Nuclear contribution   :     -0.000056260       0.000028951       0.380703417
                        -----------------------------------------
Total Dipole Moment    :     -0.000038666       0.000019153       0.262874250
                        -----------------------------------------
Magnitude (a.u.)       :      0.262874253
Magnitude (Debye)      :      0.668173251



--------------------
Rotational spectrum 
--------------------
 
Rotational constants in cm-1:             0.044728             0.040593             0.022974 
Rotational constants in MHz :          1340.902269          1216.933335           688.747923 

Dipole components along the rotational axes: 
x,y,z [a.u.] :    -0.000039     0.000014     0.262874 
x,y,z [Debye]:    -0.000099     0.000037     0.668173 

 

Dipole moment calculation done in   0.0 sec 

Maximum memory used throughout the entire PROP-calculation: 16.2 MB

--------------------------------
SUGGESTED CITATIONS FOR THIS RUN
--------------------------------

Below you find a list of papers that are relevant to this ORCA run
We neither can nor want to force you to cite these papers, but we appreciate if you do
You receive ORCA, which is the product of decades of hard work by many enthusiastic individuals, for free
The only thing we kindly ask in return is that you cite our papers,
We deeply appreciate it, if you show your appreciation for ORCA by not just citing the generic ORCA reference.

Please note that relegating all ORCA citations to the supporting information does *not* help us.
SI sections are not indexed - citations you put there will not count into any citation statistics
But we need these citations in order to attract the funding resources that allow us to do what we are doing

Therefore, if you are a happy ORCA user, please consider citing a few of the papers listed below in the main body of your paper

In addition to the list printed below, the program has created the file sp.bibtex that contains the list in bibtex format
You can import this file easily into all common literature databanks and citation aid programs


List of essential papers. We consider these as the minimum necessary citations

  1. Neese,F.
     Software update: the ORCA program system, version 5.0
     WIRES Comput. Molec. Sci., 2022 12(1)e1606
     doi.org/10.1002/wcms.1606

List of papers to cite with high priority. The work reported in these papers was absolutely
necessary for this run to complete.
Our perspective: the developers of density functionals and basis sets usually get cited in chemistry papers
Good! But without the algorithms to do something with them, the functionals or basis sets would not do anything.
Hence, in our opinion, the algorithm design and method developments papers are equally worthy of getting cited

  1. Neese,F.
     An improvement of the resolution of the identity approximation for the formation of the Coulomb matrix
     J. Comp. Chem., 2003 24(14)1740-1747
     doi.org/10.1002/jcc.10318
  2. Kossmann,S.; Neese,F.
     Comparison of two efficient approximate Hartee-Fock approaches
     Chem. Phys. Lett., 2009 481 240-243
     doi.org/10.1016/j.cplett.2009.09.073
  3. Neese,F.
     The SHARK Integral Generation and Digestion System
     J. Comp. Chem., 2022  1-16
     doi.org/10.1002/jcc.26942

List of suggested additional citations. These are papers that are important in the 'surrounding' of 
of this run, or papers that preceded the highly important papers. If you like your results we are grateful for a citation.

  1. Neese,F.
     The ORCA program system
     WIRES Comput. Molec. Sci., 2012 2(1)73-78
     doi.org/10.1002/wcms.81
  2. Neese,F.
     Software update: the ORCA program system, version 4.0
     WIRES Comput. Molec. Sci., 2018 8(1)1-6
     doi.org/10.1002/wcms.1327
  3. Neese,F.; Wennmohs,F.; Becker,U.; Riplinger,C.
     The ORCA quantum chemistry program package
     J. Chem. Phys., 2020 152 Art. No. L224108
     doi.org/10.1063/5.0004608

List of optional additional citations

  1. Neese,F.
     Approximate second-order SCF convergence for spin unrestricted wavefunctions
     Chem. Phys. Lett., 2000 325(1-3)93-98
     doi.org/10.1016/s0009-2614(00)00662-x

Timings for individual modules:

Sum of individual times          ...       13.155 sec (=   0.219 min)
Startup calculation              ...        2.142 sec (=   0.036 min)  16.3 %
SCF iterations                   ...       10.756 sec (=   0.179 min)  81.8 %
Property calculations            ...        0.257 sec (=   0.004 min)   2.0 %
                             ****ORCA TERMINATED NORMALLY****
TOTAL RUN TIME: 0 days 0 hours 0 minutes 13 seconds 513 msec
