
                                 *****************
                                 * O   R   C   A *
                                 *****************

                                            #,                                       
                                            ###                                      
                                            ####                                     
                                            #####                                    
                                            ######                                   
                                           ########,                                 
                                     ,,################,,,,,                         
                               ,,#################################,,                 
                          ,,##########################################,,             
                       ,#########################################, ''#####,          
                    ,#############################################,,   '####,        
                  ,##################################################,,,,####,       
                ,###########''''           ''''###############################       
              ,#####''   ,,,,##########,,,,          '''####'''          '####       
            ,##' ,,,,###########################,,,                        '##       
           ' ,,###''''                  '''############,,,                           
         ,,##''                                '''############,,,,        ,,,,,,###''
      ,#''                                            '''#######################'''  
     '                                                          ''''####''''         
             ,#######,   #######,   ,#######,      ##                                
            ,#'     '#,  ##    ##  ,#'     '#,    #''#        ,####,   ,####,        
            ##       ##  ##   ,#'  ##            #'  '#       #'       #'  '#        
            ##       ##  #######   ##           ,######,      #####,   #    #        
            '#,     ,#'  ##    ##  '#,     ,#' ,#      #,     #,   #   #,  ,#        
             '#######'   ##     ##  '#######'  #'      '#     '####' # '####'        



                #########################################################
                #                        -***-                          #
                #          Department of theory and spectroscopy        #
                #                                                       #
                #                      Frank Neese                      #
                #                                                       #
                #     Directorship, Architecture, Infrastructure        #
                #                    SHARK, DRIVERS                     #
                #        Core code/Algorithms in most modules           #
                #                                                       #
                #        Max Planck Institute fuer Kohlenforschung      #
                #                Kaiser Wilhelm Platz 1                 #
                #                 D-45470 Muelheim/Ruhr                 #
                #                      Germany                          #
                #                                                       #
                #                  All rights reserved                  #
                #                        -***-                          #
                #########################################################


                         Program Version 6.0.0  -   RELEASE  -


 With contributions from (in alphabetic order):
   Daniel Aravena         : Magnetic Suceptibility
   Michael Atanasov       : Ab Initio Ligand Field Theory (pilot matlab implementation)
   Alexander A. Auer      : GIAO ZORA, VPT2 properties, NMR spectrum
   Ute Becker             : All parallelization in ORCA, NUMFREQ, NUMCALC
   Giovanni Bistoni       : ED, misc. LED, open-shell LED, HFLD
   Martin Brehm           : Molecular dynamics
   Dmytro Bykov           : pre 5.0 version of the SCF Hessian
   Marcos Casanova-Páez   : Triplet and SCS-CIS(D). UHF-(DLPNO)-IP/EA/STEOM-CCSD. UHF-CVS-IP/STEOM-CCSD
   Vijay G. Chilkuri      : MRCI spin determinant printing, contributions to CSF-ICE
   Pauline Colinet        : FMM embedding
   Dipayan Datta          : RHF DLPNO-CCSD density
   Achintya Kumar Dutta   : EOM-CC, STEOM-CC
   Nicolas Foglia         : Exact transition moments, OPA infrastructure, MCD improvements
   Dmitry Ganyushin       : Spin-Orbit,Spin-Spin,Magnetic field MRCI
   Miquel Garcia          : C-PCM and meta-GGA Hessian, CCSD/C-PCM, Gaussian charge scheme
   Tiago L. C. Gouveia    : GS-ROHF, GS-ROCIS
   Yang Guo               : DLPNO-NEVPT2, F12-NEVPT2, CIM, IAO-localization
   Andreas Hansen         : Spin unrestricted coupled pair/coupled cluster methods
   Ingolf Harden          : AUTO-CI MPn and infrastructure 
   Benjamin Helmich-Paris : MC-RPA, TRAH-(SCF,CASSCF), AVAS, COSX integrals, SCF dyn. polar.
   Lee Huntington         : MR-EOM, pCC
   Robert Izsak           : Overlap fitted RIJCOSX, COSX-SCS-MP3, EOM
   Riya Kayal             : Wick's Theorem for AUTO-CI, AUTO-CI UHF-CCSDT
   Emily Kempfer          : AUTO-CI, RHF CISDT and CCSDT
   Christian Kollmar      : KDIIS, OOCD, Brueckner-CCSD(T), CCSD density, CASPT2, CASPT2-K, improved NEVPT2
   Axel Koslowski         : Symmetry handling
   Simone Kossmann        : Meta GGA functionals, TD-DFT gradient, OOMP2, (MP2 Hessian; deprecated post 5.0)
   Lucas Lang             : DCDCAS
   Marvin Lechner         : AUTO-CI (C++ implementation), FIC-MRCC
   Spencer Leger          : CASSCF response
   Dagmar Lenk            : GEPOL surface, SMD, ORCA-2-JSON
   Dimitrios Liakos       : Extrapolation schemes; Compound Job, initial MDCI parallelization
   Dimitrios Manganas     : Further ROCIS development; embedding schemes. LFT, Crystal Embedding
   Dimitrios Pantazis     : SARC Basis sets
   Anastasios Papadopoulos: AUTO-CI, single reference methods and gradients
   Taras Petrenko         : pre 6.0 DFT Hessian and TD-DFT gradient, (ASA, deprecated), ECA, 1-Electron XAS/XES, NRVS
   Peter Pinski           : DLPNO-MP2, DLPNO-MP2 Gradient
   Christoph Reimann      : Effective Core Potentials
   Marius Retegan         : Local ZFS, SOC
   Christoph Riplinger    : Optimizer, TS searches, QM/MM, DLPNO-CCSD(T), (RO)-DLPNO pert. Triples
   Michael Roemelt        : Original ROCIS implementation
   Masaaki Saitow         : Open-shell DLPNO-CCSD energy and density
   Barbara Sandhoefer     : DKH picture change effects
   Kantharuban Sivalingam : CASSCF convergence/infrastructure, NEVPT2 and variants, FIC-MRCI
   Bernardo de Souza      : ESD, SOC TD-DFT
   Georgi Stoychev        : AutoAux, RI-MP2 NMR, DLPNO-MP2 response, X2C
   Van Anh Tran           : RI-MP2 g-tensors
   Willem Van den Heuvel  : Paramagnetic NMR
   Zikuan Wang            : NOTCH, Electric field optimization 
   Frank Wennmohs         : Technical directorship and infrastructure
   Hang Xu                : AUTO-CI-Response properties 


 We gratefully acknowledge several colleagues who have allowed us to
 interface, adapt or use parts of their codes:
   Stefan Grimme, W. Hujo, H. Kruse, P. Pracht,  : VdW corrections, initial TS optimization,
                  C. Bannwarth, S. Ehlert,         DFT functionals, gCP, sTDA/sTD-DF
                  L. Wittmann, M. Mueller
   Ed Valeev, F. Pavosevic, A. Kumar             : LibInt (2-el integral package), F12 methods
   Garnet Chan, S. Sharma, J. Yang, R. Olivares  : DMRG
   Ulf Ekstrom                                   : XCFun DFT Library
   Mihaly Kallay                                 : mrcc  (arbitrary order and MRCC methods)
   Frank Weinhold                                : gennbo (NPA and NBO analysis)
   Simon Mueller                                 : openCOSMO-RS
   Christopher J. Cramer and Donald G. Truhlar   : smd solvation model
   Lars Goerigk                                  : TD-DFT with DH, B97 family of functionals
   V. Asgeirsson, H. Jonsson                     : NEB implementation
   FAccTs GmbH                                   : IRC, NEB, NEB-TS, DLPNO-Multilevel, CI-OPT
                                                   MM, QMMM, 2- and 3-layer-ONIOM, Crystal-QMMM,
                                                   LR-CPCM, SF, NACMEs, symmetry and pop. for TD-DFT,
                                                   nearIR, NL-DFT gradient (VV10), updates on ESD,
                                                   ML-optimized integration grids, MBIS, APM,
                                                   GOAT, DOCKER, SOLVATOR, interface openCOSMO-RS
   S Lehtola, MJT Oliveira, MAL Marques          : LibXC Library
   Liviu Ungur et al                             : ANISO software


 Your calculation uses the libint2 library for the computation of 2-el integrals
 For citations please refer to: http://libint.valeyev.net

 Your ORCA version has been built with support for libXC version: 6.2.2
 For citations please refer to: https://libxc.gitlab.io

 This ORCA versions uses:
   CBLAS   interface :  Fast vector & matrix operations
   LAPACKE interface :  Fast linear algebra routines
   SCALAPACK package :  Parallel linear algebra routines
   Shared memory     :  Shared parallel matrices
   BLAS/LAPACK       :  OpenBLAS 0.3.27  USE64BITINT DYNAMIC_ARCH NO_AFFINITY Haswell SINGLE_THREADED
        Core in use  :  Haswell
   Copyright (c) 2011-2014, The OpenBLAS Project


NOTE: MaxCore=6000 MB was set to SCF,MP2,MDCI,CIPSI,MRCI and CIS
      => If you want to overwrite this, your respective input block should be placed after the MaxCore statement
================================================================================

----- Orbital basis set information -----
Your calculation utilizes the basis: cc-pVTZ 
       H, B-Ne : Obtained from the ccRepo (grant-hill.group.shef.ac.uk/ccrepo) Feb. 2017
                 T. H. Dunning, Jr., J. Chem. Phys. 90, 1007 (1989)
            He : Obtained from the ccRepo (grant-hill.group.shef.ac.uk/ccrepo) Feb. 2017
                 D. E. Woon, T. H. Dunning, Jr., J. Chem. Phys. 100, 2975 (1994)
  Li-Be, Na-Mg : Obtained from the ccRepo (grant-hill.group.shef.ac.uk/ccrepo) Feb. 2017
                 B. P. Prascher, D. E. Woon, K. A. Peterson, T. H. Dunning, Jr., A. K. Wilson, Theor. Chem. Acc. 128, 69 (2011)
         Al-Ar : Obtained from the ccRepo (grant-hill.group.shef.ac.uk/ccrepo) Feb. 2017
                 D. E. Woon, T. H. Dunning, Jr., J. Chem. Phys. 98, 1358 (1993)
            Ca : Obtained from the Peterson Research Group Website (tyr0.chem.wsu.edu/~kipeters) Feb. 2017
                 J. Koput, K. A. Peterson, J. Phys. Chem. 106, 9595 (2002)
         Sc-Zn : Obtained from the ccRepo (grant-hill.group.shef.ac.uk/ccrepo) Feb. 2017
                 N. B. Balabanov, K. A. Peterson, J. Chem. Phys. 123, 064107 (2005)
                 N. B. Balabanov, K. A. Peterson, J. Chem. Phys. 125, 074110 (2006)
         Ga-Kr : Obtained from the ccRepo (grant-hill.group.shef.ac.uk/ccrepo) Feb. 2017
                 A. K. Wilson, D. E. Woon, K. A. Peterson, T. H. Dunning, Jr., J. Chem. Phys. 110, 7667 (1999)
             Y : Obtained from the ccRepo (grant-hill.group.shef.ac.uk/ccrepo) Feb. 2017
                 K. A. Peterson, D. Figgen, M. Dolg, H. Stoll, J. Chem. Phys. 126, 124101 (2007)
        Ag, Au : Obtained from the Peterson Research Group Website (tyr0.chem.wsu.edu/~kipeters) Feb. 2017
                 K. A. Peterson, C. Puzzarini, Theor. Chem. Acc. 114, 283 (2005)

----- AuxC basis set information -----
Your calculation utilizes the auxiliary basis: cc-pVTZ/C 
  Obtained from the EMSL Basis Set Exchange (bse.pnl.gov) Feb. 2017
  H-He, B-F, Al-Ar, Ga-Kr : F. Weigend, A. Kohn, C. Hattig, J. Chem. Phys. 116, 3175 (2002)
             Li-Be, Na-Mg : C. Haettig, Phys. Chem. Chem. Phys. 7, 59 (2005)
                       Ne : C. Haettig, Phys. Chem. Chem. Phys. 7, 59 (2005)
                            F. Weigend, A. Kohn, C. Hattig, J. Chem. Phys. 116, 3175 (2002)
                    Sc-Zn : J. G. Hill, J. A. Platts, J. Chem. Phys. 128, 044104 (2008)

----- AuxJK basis set information -----
Your calculation utilizes the auxiliary basis: cc-pVTZ/JK 
  H, B-F, Al-Cl, Ga-Br : Obtained from the TURBOMOLE 7.0 basis set library

================================================================================
                                        WARNINGS
                       Please study these warnings very carefully!
================================================================================


WARNING: Post HF methods need fully converged wavefunctions
  ===> : Setting SCFConvForced true
         You can overwrite this default with %scf ConvForced false 


WARNING: MDCI localization with Augmented Hessian Foster-Boys
  ===> : Switching off randomization!

================================================================================
                                       INPUT FILE
================================================================================
NAME = sp.inp
|  1> %maxcore  6000
|  2> %pal nprocs 8 end
|  3> ! DLPNO-CCSD(T) normalPNO RIJK cc-pVTZ cc-pVTZ/JK cc-pVTZ/C tightSCF noautostart miniprint nopop
|  4> %method
|  5> end
|  6> * xyz   0   1
|  7> O       1.176130000e-01   1.552002000e+00   8.649310000e-01
|  8> H       2.793960000e-01   2.151449000e+00   1.599045000e+00
|  9> H       9.632510000e-01   1.520430000e+00   3.541990000e-01
| 10> O      -2.656300000e-02  -1.369287000e+00   9.192090000e-01
| 11> H      -8.759200000e-01  -1.529241000e+00   4.638590000e-01
| 12> H      -4.796800000e-02  -4.209720000e-01   1.118927000e+00
| 13> O      -2.331117000e+00   1.360418000e+00  -4.336650000e-01
| 14> H      -2.343909000e+00   1.884708000e+00  -1.238766000e+00
| 15> H      -1.466018000e+00   1.543880000e+00  -1.880800000e-02
| 16> O      -2.472465000e+00  -1.406461000e+00  -4.340290000e-01
| 17> H      -3.280214000e+00  -1.690609000e+00   2.142000000e-03
| 18> H      -2.546787000e+00  -4.337860000e-01  -5.002670000e-01
| 19> O       2.419101000e+00   1.204125000e+00  -4.666850000e-01
| 20> H       2.557399000e+00   1.499342000e+00  -1.370620000e+00
| 21> H       2.492309000e+00   2.205670000e-01  -4.997300000e-01
| 22> O       2.286417000e+00  -1.480732000e+00  -4.451300000e-01
| 23> H       2.898736000e+00  -2.055343000e+00   2.166200000e-02
| 24> H       1.425830000e+00  -1.570951000e+00   3.130600000e-02
| 25>  *
| 26> 
| 27>                          ****END OF INPUT****
================================================================================

                       ****************************
                       * Single Point Calculation *
                       ****************************

---------------------------------
CARTESIAN COORDINATES (ANGSTROEM)
---------------------------------
  O      0.117613    1.552002    0.864931
  H      0.279396    2.151449    1.599045
  H      0.963251    1.520430    0.354199
  O     -0.026563   -1.369287    0.919209
  H     -0.875920   -1.529241    0.463859
  H     -0.047968   -0.420972    1.118927
  O     -2.331117    1.360418   -0.433665
  H     -2.343909    1.884708   -1.238766
  H     -1.466018    1.543880   -0.018808
  O     -2.472465   -1.406461   -0.434029
  H     -3.280214   -1.690609    0.002142
  H     -2.546787   -0.433786   -0.500267
  O      2.419101    1.204125   -0.466685
  H      2.557399    1.499342   -1.370620
  H      2.492309    0.220567   -0.499730
  O      2.286417   -1.480732   -0.445130
  H      2.898736   -2.055343    0.021662
  H      1.425830   -1.570951    0.031306

----------------------------
CARTESIAN COORDINATES (A.U.)
----------------------------
  NO LB      ZA    FRAG     MASS         X           Y           Z
   0 O     8.0000    0    15.999    0.222256    2.932859    1.634483
   1 H     1.0000    0     1.008    0.527982    4.065649    3.021757
   2 H     1.0000    0     1.008    1.820281    2.873196    0.669339
   3 O     8.0000    0    15.999   -0.050197   -2.587577    1.737053
   4 H     1.0000    0     1.008   -1.655249   -2.889847    0.876566
   5 H     1.0000    0     1.008   -0.090646   -0.795522    2.114466
   6 O     8.0000    0    15.999   -4.405173    2.570817   -0.819508
   7 H     1.0000    0     1.008   -4.429346    3.561582   -2.340928
   8 H     1.0000    0     1.008   -2.770373    2.917510   -0.035542
   9 O     8.0000    0    15.999   -4.672282   -2.657826   -0.820196
  10 H     1.0000    0     1.008   -6.198706   -3.194788    0.004048
  11 H     1.0000    0     1.008   -4.812730   -0.819737   -0.945368
  12 O     8.0000    0    15.999    4.571438    2.275466   -0.881907
  13 H     1.0000    0     1.008    4.832784    2.833346   -2.590096
  14 H     1.0000    0     1.008    4.709781    0.416811   -0.944353
  15 O     8.0000    0    15.999    4.320702   -2.798178   -0.841174
  16 H     1.0000    0     1.008    5.477817   -3.884035    0.040935
  17 H     1.0000    0     1.008    2.694428   -2.968667    0.059160



           ************************************************************
           *        Program running with 8 parallel MPI-processes     *
           *              working on a common directory               *
           ************************************************************
------------------------------------------------------------------------------
                   ___                                                        
                  /   \      - P O W E R E D   B Y -                         
                 /     \                                                     
                 |  |  |   _    _      __       _____    __    __             
                 |  |  |  | |  | |    /  \     |  _  \  |  |  /  |          
                  \  \/   | |  | |   /    \    | | | |  |  | /  /          
                 / \  \   | |__| |  /  /\  \   | |_| |  |  |/  /          
                |  |  |   |  __  | /  /__\  \  |    /   |      \           
                |  |  |   | |  | | |   __   |  |    \   |  |\   \          
                \     /   | |  | | |  |  |  |  | |\  \  |  | \   \       
                 \___/    |_|  |_| |__|  |__|  |_| \__\ |__|  \__/        
                                                                              
                      - O R C A' S   B I G   F R I E N D -                    
                                      &                                       
                       - I N T E G R A L  F E E D E R -                       
                                                                              
 v1 FN, 2020, v2 2021, v3 2022-2024                                           
------------------------------------------------------------------------------


----------------------
SHARK INTEGRAL PACKAGE
----------------------

Number of atoms                             ...     18
Number of basis functions                   ...    384
Number of shells                            ...    168
Maximum angular momentum                    ...      3
Integral batch strategy                     ... SHARK/LIBINT Hybrid
RI-J (if used) integral strategy            ... SPLIT-RIJ (Revised 2003 algorithm where possible)
Printlevel                                  ...      1
Contraction scheme used                     ... PARTIAL GENERAL contraction
Prescreening option                         ... SCHWARTZ
   Thresh                                   ... 2.500e-11
   Tcut                                     ... 2.500e-12
   Tpresel                                  ... 2.500e-12 
Coulomb Range Separation                    ... NOT USED
Exchange Range Separation                   ... NOT USED
Multipole approximations                    ... NOT USED
Finite Nucleus Model                        ... NOT USED
CABS basis                                  ... NOT available
Auxiliary Coulomb fitting basis             ... NOT available
Auxiliary J/K fitting basis                 ... AVAILABLE
   # of basis functions in Aux-JK           ...    834
   # of shells in Aux-JK                    ...    270
   Maximum angular momentum in Aux-JK       ...      4
Auxiliary Correlation fitting basis         ... AVAILABLE
   # of basis functions in Aux-C            ...    846
   # of shells in Aux-C                     ...    258
   Maximum angular momentum in Aux-C        ...      4
Auxiliary 'external' fitting basis          ... NOT available

Checking pre-screening integrals            ... done (  0.0 sec) Dimension = 168
Save PGC pre-screening integrals            ... done (  0.0 sec) Dimension = 168
Calculate PGC overlap integrals             ... done (  0.0 sec) Dimension = 132
Calculating pre-screening integrals (ORCA)  ... done (  0.1 sec) Dimension = 132
Check shell pair data                       ... done (  0.0 sec)
Shell pair information
Shell pair cut-off parameter TPreSel        ...   2.5e-12
Total number of shell pairs                 ...     14196
Shell pairs after pre-screening             ...      9548
Total number of primitive shell pairs       ...     20964
Primitive shell pairs kept                  ...     12413
          la=0 lb=0:   2924 shell pairs
          la=1 lb=0:   2876 shell pairs
          la=1 lb=1:    736 shell pairs
          la=2 lb=0:   1388 shell pairs
          la=2 lb=1:    773 shell pairs
          la=2 lb=2:    221 shell pairs
          la=3 lb=0:    321 shell pairs
          la=3 lb=1:    198 shell pairs
          la=3 lb=2:     98 shell pairs
          la=3 lb=3:     13 shell pairs

Calculating one electron integrals          ... done (  0.0 sec)
Calculating RI/JK V-Matrix + Cholesky decomp... done (  0.0 sec)
Calculating RI/C V-Matrix + Cholesky decomp.... done (  0.0 sec)
Calculating Nuclear repulsion               ... done (  0.0 sec) ENN=    285.138551364171 Eh

Diagonalization of the overlap matrix:
Smallest eigenvalue                        ... 1.682e-03
Time for diagonalization                   ...    0.019 sec
Threshold for overlap eigenvalues          ... 1.000e-07
Number of eigenvalues below threshold      ... 0
Time for construction of square roots      ...    0.009 sec
Total time needed                          ...    0.030 sec

-------------------
DFT GRID GENERATION
-------------------

General Integration Accuracy     IntAcc      ... 4.388
Radial Grid Type                 RadialGrid  ... OptM3 with GC (2021)
Angular Grid (max. ang.)         AngularGrid ... 4 (Lebedev-302)
Angular grid pruning method      GridPruning ... 4 (adaptive)
Weight generation scheme         WeightScheme... mBecke (2022)
Basis function cutoff            BFCut       ... 1.0000e-11
Integration weight cutoff        WCut        ... 1.0000e-14
Partially contracted basis set               ... off
Rotationally invariant grid construction     ... off
Angular grids for H and He will be reduced by one unit

Total number of grid points                  ...    75612
Total number of batches                      ...     1191
Average number of points per batch           ...       63
Average number of grid points per atom       ...     4201

---------------------
SHARK GRID GENERATION
---------------------

General Integration Accuracy     IntAcc      ... 4.388
Radial Grid Type                 RadialGrid  ... OptM3 with GC (2021)
Angular Grid (max. ang.)         AngularGrid ... 4 (Lebedev-302)
Angular grid pruning method      GridPruning ... 4 (adaptive)
Weight generation scheme         WeightScheme... mBecke (2022)
Basis function cutoff            BFCut       ... 1.0000e-11
Integration weight cutoff        WCut        ... 1.0000e-14
Partially contracted basis set               ... off
Rotationally invariant grid construction     ... off
Angular grids for H and He will be reduced by one unit
Steep s-basis detected: some atoms will have their radial
                        grid points doubled.

Total number of grid points                  ...   112708
Total number of batches                      ...     1770
Average number of points per batch           ...       63
Average number of grid points per atom       ...     6262
Initializing property integral containers    ... done (  0.0 sec)

SHARK setup successfully completed in   2.3 seconds

Maximum memory used throughout the entire STARTUP-calculation: 35.8 MB


           ************************************************************
           *        Program running with 8 parallel MPI-processes     *
           *              working on a common directory               *
           ************************************************************
Loading Hartree-Fock densities                     ... done
Calculating cut-offs                               ... done
Initializing the effective Hamiltonian             ... done
Setting up the integral package (SHARK)            ... done
Starting the Coulomb interaction                   ... done (   0.1 sec)
Making the grid                                    ... done (   0.2 sec)
Mapping shells                                     ... done
Starting the XC term evaluation                    ... done (   0.0 sec)
Transforming the Hamiltonian                       ... done (   0.0 sec)
Diagonalizing the Hamiltonian                      ... done (   0.0 sec)
Back transforming the eigenvectors                 ... done (   0.0 sec)
Now organizing SCF variables                       ... done
             **** ENERGY FILE WAS UPDATED (sp.en.tmp) ****
Finished Guess after   0.5 sec
Maximum memory used throughout the entire GUESS-calculation: 19.2 MB


           ************************************************************
           *        Program running with 8 parallel MPI-processes     *
           *              working on a common directory               *
           ************************************************************
----------------------------------------D-I-I-S--------------------------------------------
Iteration    Energy (Eh)           Delta-E    RMSDP     MaxDP     DIISErr   Damp  Time(sec)
-------------------------------------------------------------------------------------------
    1    -455.8908082551118923     0.00e+00  9.61e-04  3.77e-02  3.59e-01  0.700   0.7
    2    -455.3550940792291613     5.36e-01  1.08e-03  4.55e-02  3.39e-01  0.700   0.8
    3    -455.4093559695188560    -5.43e-02  7.05e-04  2.92e-02  2.00e-01  0.700   0.7
                               ***Turning on AO-DIIS***
    4    -455.7691230969861635    -3.60e-01  2.46e-04  9.18e-03  9.57e-02  0.700   0.7
    5    -456.2019917232088346    -4.33e-01  5.68e-04  2.21e-02  6.13e-02  0.000   0.7
    6    -456.3914936420943604    -1.90e-01  1.60e-04  6.92e-03  2.89e-02  0.000   0.7
    7    -456.3943195545908793    -2.83e-03  1.08e-04  4.38e-03  2.13e-02  0.000   0.7
    8    -456.3958759287282874    -1.56e-03  7.65e-05  2.89e-03  1.19e-02  0.000   0.8
    9    -456.3964606200034950    -5.85e-04  5.87e-05  2.48e-03  5.74e-03  0.000   0.7
                              *** Initializing SOSCF ***
---------------------------------------S-O-S-C-F--------------------------------------
Iteration    Energy (Eh)           Delta-E    RMSDP     MaxDP     MaxGrad    Time(sec)
--------------------------------------------------------------------------------------
   10    -456.3966093737267329    -1.49e-04  9.06e-06  4.44e-04  4.40e-04     0.8
   11    -456.3966114489279562    -2.08e-06  4.29e-06  1.16e-04  4.34e-05     0.7
   12    -456.3966117533818760    -3.04e-07  2.58e-06  7.32e-05  1.93e-05     0.7
   13    -456.3966118052865113    -5.19e-08  4.54e-07  1.55e-05  9.79e-06     0.7
   14    -456.3966118107036891    -5.42e-09  1.28e-07  3.58e-06  1.61e-06     0.7
                 **** Energy Check signals convergence ****

               *****************************************************
               *                     SUCCESS                       *
               *           SCF CONVERGED AFTER  14 CYCLES          *
               *****************************************************

             **** ENERGY FILE WAS UPDATED (sp.en.tmp) ****

----------------
TOTAL SCF ENERGY
----------------

Total Energy       :       -456.39661181070369 Eh          -12419.18319 eV

Components:
Nuclear Repulsion  :        285.13855136417112 Eh            7759.01444 eV
Electronic Energy  :       -741.53516317487481 Eh          -20178.19763 eV
One Electron Energy:      -1198.86145463848766 Eh          -32622.67869 eV
Two Electron Energy:        457.32629146361285 Eh           12444.48106 eV

Virial components:
Potential Energy   :       -912.29546039308559 Eh          -24824.82155 eV
Kinetic Energy     :        455.89884858238190 Eh           12405.63836 eV
Virial Ratio       :          2.00109182821994

---------------
SCF CONVERGENCE
---------------

  Last Energy change         ...    5.4172e-09  Tolerance :   1.0000e-08
  Last MAX-Density change    ...    3.5783e-06  Tolerance :   1.0000e-07
  Last RMS-Density change    ...    1.2831e-07  Tolerance :   5.0000e-09
  Last DIIS Error            ...    4.4009e-04  Tolerance :   5.0000e-07
  Last Orbital Gradient      ...    1.6109e-06  Tolerance :   1.0000e-05
  Last Orbital Rotation      ...    2.1506e-06  Tolerance :   1.0000e-05


----------------
ORBITAL ENERGIES
----------------

  NO   OCC          E(Eh)            E(eV) 
   0   2.0000     -20.568754      -559.7043 
   1   2.0000     -20.557019      -559.3849 
   2   2.0000     -20.555498      -559.3435 
   3   2.0000     -20.544252      -559.0375 
   4   2.0000     -20.543855      -559.0267 
   5   2.0000     -20.531296      -558.6850 
   6   2.0000      -1.365931       -37.1689 
   7   2.0000      -1.350181       -36.7403 
   8   2.0000      -1.344617       -36.5889 
   9   2.0000      -1.335529       -36.3416 
  10   2.0000      -1.330178       -36.1960 
  11   2.0000      -1.314358       -35.7655 
  12   2.0000      -0.734568       -19.9886 
  13   2.0000      -0.722218       -19.6525 
  14   2.0000      -0.718853       -19.5610 
  15   2.0000      -0.707693       -19.2573 
  16   2.0000      -0.703240       -19.1361 
  17   2.0000      -0.689207       -18.7543 
  18   2.0000      -0.628414       -17.1000 
  19   2.0000      -0.600312       -16.3353 
  20   2.0000      -0.587651       -15.9908 
  21   2.0000      -0.574689       -15.6381 
  22   2.0000      -0.561297       -15.2737 
  23   2.0000      -0.539161       -14.6713 
  24   2.0000      -0.516350       -14.0506 
  25   2.0000      -0.506494       -13.7824 
  26   2.0000      -0.505844       -13.7647 
  27   2.0000      -0.494775       -13.4635 
  28   2.0000      -0.491232       -13.3671 
  29   2.0000      -0.480969       -13.0878 
  30   0.0000       0.125099         3.4041 
  31   0.0000       0.154761         4.2113 
  32   0.0000       0.165526         4.5042 
  33   0.0000       0.176159         4.7935 
  34   0.0000       0.181992         4.9522 
  35   0.0000       0.260147         7.0789 
  36   0.0000       0.310387         8.4461 
  37   0.0000       0.316525         8.6131 
  38   0.0000       0.325230         8.8500 
  39   0.0000       0.331279         9.0146 
  40   0.0000       0.351581         9.5670 
*Only the first 10 virtual orbitals were printed.
Total SCF time: 0 days 0 hours 0 min 10 sec 
Finished LeanSCF after  10.6 sec

Maximum memory used throughout the entire LEANSCF-calculation: 41.3 MB


           ************************************************************
           *        Program running with 8 parallel MPI-processes     *
           *              working on a common directory               *
           ************************************************************

------------------------------------------------------------------------------
                         ORCA PROPERTY INTEGRAL CALCULATIONS
------------------------------------------------------------------------------

GBWName                                   ... sp.gbw
Number of atoms                           ...     18
Number of basis functions                 ...    384
Max core memory                           ...   6000 MB

Dipole integrals                          ... YES
Quadrupole integrals                      ...  NO
Linear momentum integrals                 ... YES
Angular momentum integrals                ... YES
Higher moments length integrals           ...  NO
Higher moments velocity integrals         ...  NO
Kinetic energy integrals                  ...  NO
GIAO right hand sides                     ...  NO
GIAO dipole derivative integrals          ...  NO
SOC integrals                             ...  NO
EPR diamagnetic integrals (GIAO)          ...  NO
EPR gauge integrals                       ...  NO
Field gradient integrals                  ...  NO (   0 nuclei)
Spin-dipole/Fermi contact integrals       ...  NO (   0 nuclei)
Contact density integrals                 ...  NO (   0 nuclei)
Nucleus-orbit integrals                   ...  NO (   0 nuclei)
Geometric perturbations                   ...  NO (  18 nuclei)

Choice of electric origin   ... Center of mass
Position of electric origin ... ( -0.0010, -0.0194,  0.0006) 
Choice of magnetic origin   ... GIAO
Position of magnetic origin ... (  0.0000,  0.0000,  0.0000) 

Calculating integrals                     ... Electric Dipole (Length)     done (  0.0 sec)
Calculating integrals                     ... Linear Momentum              done (  0.0 sec)
Calculating integrals                     ... Angular Momentum  (ElOri)    done (  0.0 sec)

Property integrals calculated in   0.1 sec

Maximum memory used throughout the entire PROPINT-calculation: 19.8 MB


           ************************************************************
           *        Program running with 8 parallel MPI-processes     *
           *              working on a common directory               *
           ************************************************************


--------------------------------------------------------------------------------
                             ORCA-MATRIX DRIVEN CI
--------------------------------------------------------------------------------


Wavefunction type
-----------------
Correlation treatment                      ...      CCSD     
Single excitations                         ... ON
Orbital optimization                       ... OFF
Calculation of Z vector                    ... OFF
Calculation of Brueckner orbitals          ... OFF
Perturbative triple excitations            ... ON
Calculation of F12 correction              ... OFF
Frozen core treatment                      ... chemical core (12 el)
Reference Wavefunction                     ... RHF
  Internal Orbitals:     6 ...   29 ( 24 MO's/ 48 electrons)
  Virtual  Orbitals:    30 ...  347 (318 MO's              )
Number of AO's                             ...    348
Number of electrons                        ...     60
Number of correlated electrons             ...     48

Algorithmic settings
--------------------
Integral transformation                    ... All integrals via the RI transformation
K(C) Formation                             ... RI-DLPNO
   PNO-Integral Storage                    ... ON DISK
   PNO occupation number cut-off           ... 3.330e-07
   Singles PNO occupation number cut-off   ... 9.990e-09
   PNO Mulliken prescreening cut-off       ... 1.000e-03
   Domain cut-off (Mulliken population)    ... 1.000e-03
   PNO Normalization                       ...    1
Maximum number of iterations               ...        50
Convergence tolerance (max. residuum)      ... 1.000e-05
Level shift for amplitude update           ... 2.000e-01
Maximum number of DIIS vectors             ...         7
DIIS turned on at iteration                ...         0
Damping before turning on DIIS             ...     0.500
Damping after turning on DIIS              ...     0.000
Pair specific amplitude update             ... OFF
Natural orbital iterations                 ... OFF
Perturbative natural orbital generation    ... OFF
Printlevel                                 ... 2

Singles Fock matrix elements calculated using PNOs.

Memory handling:
----------------
Maximum memory for working arrays          ...   6000 MB
Data storage in matrix containers          ... UNCOMPRESSED
Data type for integral storage             ... DOUBLE
In-Core Storage of quantities:
   Amplitudes+Sigma Vector      ... NO
   J+K operators                ... NO
   DIIS vectors                 ... NO
   3-external integrals         ... NO
   4-external integrals         ... NO

Localization treatment:
-----------------------
Localization option                        ...    6
Localization threshhold                    ... -1.0e+00
Using relative localization threshhold     ... 1.0e-08
Neglect threshold for strong pairs         ... 1.000e-04 Eh
Prescreening threshold for very weak pairs ... 1.000e-06 Eh

Initializing the integral package          ... done
Localizing the valence orbitals
Localizing the valence orbitals
------------------------------------------------------------------------------
                           ORCA ORBITAL LOCALIZATION
------------------------------------------------------------------------------

Input orbitals are from                  ... sp.gbw
Output orbitals are to                   ... sp.loc
Max. number of iterations                ... 128
Localizations seeded randomly            ... off
Convergence tolerance                    ... 1.000e-06
Using relative localization threshhold   ... 1.000e-08
Threshold for strong local MOs           ... 9.500e-01
Threshold for bond MOs                   ... 8.500e-01
Operator                                 ... 0
Orbital range for localization           ... 6 to 29
Localization criterion                   ... FOSTER-BOYS (AUGMENTED HESSIAN)
Doing the dipole integrals     ... o.k.
Initial value of the localization sum :   526.962977
ITERATION   0 : L=  540.1299874265 DL=  1.32e+01 (AVERGE_DL)=    0.2184183140 
ITERATION   1 : L=  541.4182145929 DL=  1.29e+00 (AVERGE_DL)=    0.0683190291 
ITERATION   2 : L=  541.7317896961 DL=  3.14e-01 (AVERGE_DL)=    0.0337067008 
ITERATION   3 : L=  541.7706763722 DL=  3.89e-02 (AVERGE_DL)=    0.0118698675 
ITERATION   4 : L=  541.7744502637 DL=  3.77e-03 (AVERGE_DL)=    0.0036977723 
ITERATION   5 : L=  541.7748103815 DL=  3.60e-04 (AVERGE_DL)=    0.0011422673 
ITERATION   6 : L=  541.7748429768 DL=  3.26e-05 (AVERGE_DL)=    0.0003436551 
ITERATION   7 : L=  541.7748458486 DL=  2.87e-06 (AVERGE_DL)=    0.0001020066 
ITERATION   8 : L=  541.7748460949 DL=  2.46e-07 (AVERGE_DL)=    0.0000298672 
LOCALIZATION SUM CONVERGED

------------------------------------------------------
AUGMENTED HESSIAN OPTIMIZATION OF FOSTER-BOYS ORBITALS
------------------------------------------------------

Spin operator:           0
Orbital window:          6 to 29
Number of iterations:    128
Gradient tolerance:      1.000e-06
Number of pairs:         276
Davidson threshold:      2000
Diagonalization method:  LAPACK
Iter:    0   L: 541.7748460949   Grad. norm: 2.487880e-03
   *** Likely close to a maximum now. ***
       Augmented Hessian eigenvalues:  6.93e-08 -1.35e+00 -1.38e+00 -1.39e+00 ... 
Iter:    1   L: 541.7748461295   Grad. norm: 1.726213e-08
LOCALIZATION HAS CONVERGED.

Eigenvalues of the Hessian:
  0 -1.351e+00
  1 -1.378e+00
  2 -1.389e+00
  3 -1.392e+00
  4 -1.393e+00
  5 -1.416e+00
  6 -3.016e+00
  7 -3.087e+00
  8 -3.088e+00
  9 -3.096e+00
    ...


--------------------------------------------------------------------------------
                    LOCALIZED MOLECULAR ORBITAL COMPOSITIONS
--------------------------------------------------------------------------------

The Mulliken populations for each LMO on each atom are computed
The LMO`s will be ordered according to atom index and type
  (A) Strongly localized MO`s have populations of >=0.950 on one atom
  (B) Two center bond orbitals have populations of >=0.850 on two atoms
  (C) Other MO`s are considered to be `delocalized`

FOUND  -  12 strongly local MO`s
       -  12 two center bond MO`s
       -   0 significantly delocalized MO`s

Rather strongly localized orbitals:
MO  17:  15O  -   0.980384
MO  16:  15O  -   0.980781
MO  15:  12O  -   0.979957
MO  14:  12O  -   0.980449
MO  13:   9O  -   0.987081
MO  12:   9O  -   0.981887
MO  11:   6O  -   0.982771
MO  10:   6O  -   0.988109
MO   9:   3O  -   0.981083
MO   8:   3O  -   0.973876
MO   7:   0O  -   0.983054
MO   6:   0O  -   0.990674
Bond-like localized orbitals:
MO  29:  17H  -   0.306668  and  15O  -   0.705435
MO  28:  16H  -   0.380180  and  15O  -   0.627418
MO  27:  14H  -   0.306180  and  12O  -   0.705227
MO  26:  13H  -   0.380123  and  12O  -   0.627234
MO  25:  11H  -   0.325813  and   9O  -   0.684994
MO  24:  10H  -   0.381100  and   9O  -   0.627113
MO  23:   8H  -   0.325057  and   6O  -   0.684949
MO  22:   7H  -   0.380533  and   6O  -   0.626672
MO  21:   5H  -   0.348605  and   3O  -   0.662060
MO  20:   4H  -   0.321055  and   3O  -   0.689583
MO  19:   2H  -   0.304984  and   0O  -   0.705842
MO  18:   1H  -   0.377709  and   0O  -   0.626738
Localized MO's were stored in: sp.loc

Localizing the core orbitals
------------------------------------------------------------------------------
                           ORCA ORBITAL LOCALIZATION
------------------------------------------------------------------------------

Input orbitals are from                  ... sp.loc
Output orbitals are to                   ... sp.loc
Max. number of iterations                ... 128
Localizations seeded randomly            ... off
Convergence tolerance                    ... 1.000e-06
Using relative localization threshhold   ... 1.000e-08
Threshold for strong local MOs           ... 9.500e-01
Threshold for bond MOs                   ... 8.500e-01
Operator                                 ... 0
Orbital range for localization           ... 0 to 5
Localization criterion                   ... FOSTER-BOYS (AUGMENTED HESSIAN)
Doing the dipole integrals     ... o.k.
Initial value of the localization sum :   131.343188
ITERATION   0 : L=  131.3431900516 DL=  1.68e-06 (AVERGE_DL)=    0.0003348594 
ITERATION   1 : L=  131.3431900516 DL=  0.00e+00 (AVERGE_DL)=    0.0000000000 
LOCALIZATION SUM CONVERGED

------------------------------------------------------
AUGMENTED HESSIAN OPTIMIZATION OF FOSTER-BOYS ORBITALS
------------------------------------------------------

Spin operator:           0
Orbital window:          0 to 5
Number of iterations:    128
Gradient tolerance:      1.000e-06
Number of pairs:         15
Davidson threshold:      2000
Diagonalization method:  LAPACK
Iter:    0   L: 131.3431900516   Grad. norm: 5.668585e-04
   *** Likely close to a maximum now. ***
       Augmented Hessian eigenvalues:  7.96e-10 -1.03e+02 -1.03e+02 -1.03e+02 ... 
Iter:    1   L: 131.3431900520   Grad. norm: 4.062023e-15
LOCALIZATION HAS CONVERGED.

Eigenvalues of the Hessian:
  0 -1.027e+02
  1 -1.032e+02
  2 -1.032e+02
  3 -1.096e+02
  4 -1.103e+02
  5 -1.116e+02
  6 -1.222e+02
  7 -2.075e+02
  8 -2.084e+02
  9 -2.231e+02
    ...


--------------------------------------------------------------------------------
                    LOCALIZED MOLECULAR ORBITAL COMPOSITIONS
--------------------------------------------------------------------------------

The Mulliken populations for each LMO on each atom are computed
The LMO`s will be ordered according to atom index and type
  (A) Strongly localized MO`s have populations of >=0.950 on one atom
  (B) Two center bond orbitals have populations of >=0.850 on two atoms
  (C) Other MO`s are considered to be `delocalized`

FOUND  -   6 strongly local MO`s
       -   0 two center bond MO`s
       -   0 significantly delocalized MO`s

Rather strongly localized orbitals:
MO   5:  15O  -   0.999775
MO   4:  12O  -   0.999755
MO   3:   9O  -   0.999775
MO   2:   6O  -   0.999755
MO   1:   3O  -   0.999728
MO   0:   0O  -   0.999756
Localized MO's were stored in: sp.loc

Warning: reference  - re-canonicalizations have been set to INT 1 VIRT 1
Warning: internal orbitals are localized - no re-canonicalization of internal orbitals
Warning: UsePNO is turned on - no re-canonicalization of internal and virtual orbitals
Fock densities were made 
Making Fock matrix and reference energy:

--------------------------
CLOSED-SHELL FOCK OPERATOR
--------------------------

Time needed for Fock operator              ...            1.095 sec
Reference energy                           ...   -456.396611811

--------------
DLPNO SETTINGS (2015 fully linear scaling implementation)
--------------

TCutMKN:           1.000e-03
TCutPAO:           1.000e-03
TCutPNO:           3.330e-07
TCutPNOSingles:    9.990e-09
TCutEN:            9.700e-01
TCutPAOExt:        1.000e-01
TCutPairs:         1.000e-04
TCutPre:           1.000e-06
TCutOSV:           1.000e-06
TCutDOij:          1.000e-05
TCutDO:            1.000e-02
TCutC:             1.000e-04
TCutCPAO:          1.000e-03
TCutCMO:           1.000e-03
TScaleDOMP2PreScr: 2.000e+00
TScaleMKNMP2PreScr:1.000e+01
TScalePNOMP2PreScr:1.000e+00
PAO overlap thresh 1.000e-08
Using PNOs for Singles Fock computation
Use new domains
Use fully linear algorithm
TCutTNO:           1.000e-09
TCutMP2Pairs:      1.000e-05
TCutDOStrong:      2.000e-02
TCutDOWeak:        4.000e-02
TCutMKNStrong:     1.000e-02
TCutMKNWeak:       1.000e-01
NTCutTNO:          1

--------------------------
Mulliken population of the LMOs            ... ok
Performing proximity check                 ... No problems found
Calculating differential overlap integrals ... ok

--------------------------
ELECTRON PAIR PRESCREENING
--------------------------

Dipole-based pair screening          .... used

   TCutDOij = 1.000000e-05
   TCutPre  = 1.000000e-06
   .... Finished loop over pairs
Total time spent in the prescreening                  ...     0.000 sec
sum of pair energies estimated for screened out pairs ...       0.000000000000 Eh
Thresholds for map construction and integral transformation for crude MP2:
   TCutMKN                    ...     1.0e-02
   TCutDO                     ...     2.0e-02
   TCutPairs                  ...     1.0e-04
   TCutPNO_CrudeMP2           ...     3.3e-07
   TCutPNOSingles_CrudeMP2    ...     1.0e-08
--------------------------------
LOCAL RI TRANSFORMATION (IAVPAO)
--------------------------------

Orbital window:       6 to 29
Number of PAOs:     348
Basis functions:    348 (132 shells)
Aux. functions:     846 (258 shells)
Use SHARK:           on
Have SHARK:         yes

Processing maps (0.0 sec)
Average map sizes:
   Aux shells -> MOs              24.0
   Aux shells -> PAOs            348.0
   MOs        -> AO shells       114.8
   PAOs       -> AO shells       129.9

Calculating integrals (0.5 sec, 53.917 MB)
Sorting integrals (0.1 sec, 53.908 MB)
Total time for the integral transformation: 0.7 sec
--------------------------------
INITIAL GUESS AND PNO GENERATION
--------------------------------

PNO truncation parameters                   .... 
    PAOOverlapThresh   =        1.000e-08

    TCutPairs          =        1.000e-04
    TCutPNO            =        3.330e-07
    TCutPNOSingles     =        9.990e-09
    TCutMP2Pairs       =        1.000e-05
    TCutMKN            =        1.000e-02
    TCutDO             =        2.000e-02

Pair selection                          .... not used
Type of local MP2 treatment                 .... semi-local MP2
Strategy for PNO selection                  .... occupation number selection
Pair density normalization                  .... MP2 norm
Spin component scaling                      .... not used

   .... Finished loop over pairs
Making pair pair interaction lists          ... done

                       ===========================
                        109 OF  300 PAIRS ARE KEPT CCSD PAIRS
                        111 OF  300 PAIRS ARE KEPT MP2 PAIRS FOR (T)
                         80 OF  300 PAIRS ARE SKIPPED
                       ===========================

Total time spent in the initial guess                 ...     1.467 sec
SL-MP2 correlation energy (all non-screened pairs)    ...      -1.553130519491 Eh

Initial PNO correlation energy                        ...      -1.546239659145 Eh
sum of pair energies prescreened and skipped MP2 pairs...      -0.000325542416 Eh
sum of pair energies of crude MP2 skipped pairs only  ...      -0.000325542416 Eh
sum of MP2 pair energies for pairs that were not kept ...      -0.005438649432 Eh
sum of PNO error estimates for the kept pairs         ...      -0.001452210915 Eh
                                                          --------------------
sum of all corrections                                         -0.006890860347
Initial total correlation energy                               -1.553130519491
Thresholds for map construction and integral transformation for fine MP2 and CCSD(T) calculation:
   TCutMKN   ...     1.0e-03
   TCutDO    ...     1.0e-02
   TCutPairs ...     1.0e-04
   TCutCMO   ...     1.0e-03
   TCutCPAO  ...     1.0e-03

Thresholds for map construction and integral transformation for strong Triples:
   TCutMKN   ...     1.0e-02
   TCutDO    ...     2.0e-02
   TCutCMO   ...     1.0e-03
   TCutCPAO  ...     1.0e-03

Thresholds for map construction and integral transformation for weak Triples:
   TCutMKN   ...     1.0e-01
   TCutDO    ...     4.0e-02
   TCutCMO   ...     1.0e-03
   TCutCPAO  ...     1.0e-03

--------------------------------
LOCAL RI TRANSFORMATION (IAVPAO)
--------------------------------

Orbital window:       6 to 29
Number of PAOs:     348
Basis functions:    348 (132 shells)
Aux. functions:     846 (258 shells)
Use SHARK:           on
Have SHARK:         yes

Processing maps (0.0 sec)
Average map sizes:
   Aux shells -> MOs              21.5
   Aux shells -> PAOs            348.0
   MOs        -> AO shells       114.8
   PAOs       -> AO shells       129.9

Calculating integrals (0.5 sec, 48.453 MB)
Sorting integrals (0.1 sec, 48.444 MB)
Total time for the integral transformation: 0.7 sec
--------------------------------
INITIAL GUESS AND PNO GENERATION
--------------------------------

PNO truncation parameters                   .... 
    PAOOverlapThresh   =        1.000e-08

    TCutPairs          =        1.000e-04
    TCutPNO            =        3.330e-07
    TCutPNOSingles     =        9.990e-09
    TCutMP2Pairs       =        1.000e-05
    TCutMKN            =        1.000e-03
    TCutDO             =        1.000e-02

Pair selection                          .... not used
Type of local MP2 treatment                 .... semi-local MP2
Strategy for PNO selection                  .... occupation number selection
Pair density normalization                  .... MP2 norm
Spin component scaling                      .... not used

   .... Finished loop over pairs

 PNO Occupation Number Statistics: 
  | Av. % of trace(Dij) retained        ...  98.107613325742
  | sigma^2 in % of trace(Dij) retained ...   3.19e+00
  | Av. % of trace(Di) retained         ...  99.999510916470
  | sigma^2 in % of trace(Di) retained  ...   1.96e-08
 Distributions of % trace(Dij) recovered:
  |       >= 99.9  ...    60 ( 27.3 % of all pairs)
  |   [80.0, 90.0) ...     2 (  0.9 % of all pairs)
  |   [90.0, 99.0) ...   150 ( 68.2 % of all pairs)
  |   [99.0, 99.9) ...     8 (  3.6 % of all pairs)
 Distributions of % trace(Di) recovered :
  |       >= 99.9  ...    24 (100.0 % of all I-pairs )

Making pair pair interaction lists          ... done

                       ===========================
                        109 OF  220 PAIRS ARE KEPT
                       ===========================

Total time spent in the initial guess                 ...     2.031 sec
SL-MP2 correlation energy (all non-screened pairs)    ...      -1.553108261736 Eh

Initial PNO correlation energy                        ...      -1.546516268976 Eh
sum of pair energies estimated for screened out pairs ...      -0.000325542416 Eh
sum of MP2 pair energies for pairs that were not kept ...      -0.005105907554 Eh
sum of PNO error estimates for the kept pairs         ...      -0.001486085206 Eh
                                                          --------------------
sum of all corrections                                         -0.006917535176
Initial total correlation energy                               -1.553433804152
Thresholds for map construction and integral transformation for fine MP2 and CCSD(T) calculation:
   TCutMKN   ...     1.0e-03
   TCutDO    ...     1.0e-02
   TCutPairs ...     1.0e-04
   TCutCMO   ...     1.0e-03
   TCutCPAO  ...     1.0e-03

Time for aux screen maps:            0.001
Time for maps after fine MP2:            0.007
-----------------------------
LOCAL RI TRANSFORMATION (IJV)
-----------------------------

Orbital window:       6 to 29
Basis functions:    348 (132 shells)
Aux. functions:     846 (258 shells)
Use SHARK:           on

Processing maps (0.0 sec)
Average map sizes:
   Aux shells -> MOs(i)           18.0
   Aux shells -> MOs(j)           24.0
   MOs        -> AO shells       114.8

Calculating integrals NOTE: Switching SHARK to General Contraction for MDCI
      If that is not desired please turn off the PGCFlag in the input (%shark PGCFlag 0 end)
(1.7 sec, 2.806 MB)
Sorting integrals (0.0 sec, 2.797 MB)
Total time for the integral transformation: 1.7 sec
--------------------------------
LOCAL RI TRANSFORMATION (VABPAO)
--------------------------------

Number of PAOs:     348
Basis functions:    348 (132 shells)
Aux. functions:     846 (258 shells)
Use SHARK:           on

Processing maps (0.0 sec)
Average map sizes:
   Aux shells -> PAOs            341.2
   PAOs       -> AO shells       129.9

Calculating integrals NOTE: Switching SHARK to General Contraction for MDCI
      If that is not desired please turn off the PGCFlag in the input (%shark PGCFlag 0 end)
(1.9 sec, 755.407 MB)
Finished


-------------------------------------
Pair Pair Term precalculation with     
RI-(ij|mn) and (im|jn) transformation  
ON THE FLY                             
-------------------------------------

   IBatch   1 (of   1)              ... done (    4.354 sec)
Total EXT                           ...           4.354 sec

IAVPA Available = YES
VABPAO Available= YES
IJV Available   = YES
IJK Available   = NO
PNO3i Available = YES
PNO3j Available = YES
PNO4 Available  = YES
---------------------
RI-PNO TRANSFORMATION
---------------------

Total Number of PNOs                   ...  3359
Average number of PNOs per pair        ...    30
Maximal number of PNOs per pair        ...    44
   #pairs with  1 -  5 PNOs   :    0
   #pairs with  6 - 10 PNOs   :    1
   #pairs with 11 - 15 PNOs   :   16
   #pairs with 16 - 20 PNOs   :   25
   #pairs with 21 - 25 PNOs   :    1
   #pairs with 26 - 30 PNOs   :    3
   #pairs with 31 - 35 PNOs   :    5
   #pairs with 36 - 40 PNOs   :   22
   #pairs with 41 - 45 PNOs   :   36
   #pairs with 46 - 50 PNOs   :    0

Generation of (ij|ab)[P] integrals            ... on
Generation of (ia|bc)[P],(ja|bc)[P] integrals ... on
Storage of 3 and 4 external integrals         ... on
Generation of ALL (ka|bc)[P] integrals        ... on
Keep RI integrals in memory                   ... off

Ibatch:  1 (of  1)
Starting 2-4 index PNO integral generation ... done

Timings:
Total PNO integral transformation time     ...          4.381 sec
Size of the 3-external file                ...        36 MB
Size of the 4-external file                ...       191 MB
Size of the IKJL file                      ...         0 MB
Size of the all 3-external file            ...       438 MB
Size of the 1-external file                ...         1 MB

Making pair/pair overlap matrices          ... done (    0.716 sec)
Size of the pair overlap file              ... 84 MB
Redoing the guess amplitudes               ... done (    0.001 sec)

-------------------------
FINAL STARTUP INFORMATION
-------------------------

E(0)                                       ...   -456.396611811
E(SL-MP2)                                  ...     -1.553108262
E(SL-MP2) including corrections            ...     -1.553433804
Initial E(tot)                             ...   -457.950045615
<T|T>                                      ...      0.336323365
Number of pairs included                   ... 109
Total number of pairs                      ... 300

------------------------------------------------
                  RHF COUPLED CLUSTER ITERATIONS
------------------------------------------------

Number of PNO amplitudes to be optimized   ...       120473
Number of non-PNO amplitudes               ...     11022516
Untruncated number of regular amplitudes   ...     30337200

Iter       E(tot)           E(Corr)          Delta-E          Residual     Time
  0   -457.950077043     -1.546547696      0.006560565      0.015391323    2.30
                           *** Turning on DIIS ***
  1   -457.987068485     -1.583539139     -0.036991442      0.006304361    2.24
  2   -458.019748929     -1.616219582     -0.032680443      0.001811940    2.22
  3   -458.025413759     -1.621884413     -0.005664830      0.000895163    2.25
  4   -458.026777810     -1.623248464     -0.001364051      0.000237153    2.23
  5   -458.026972509     -1.623443163     -0.000194699      0.000104553    2.26
  6   -458.027014386     -1.623485040     -0.000041877      0.000036812    2.23
  7   -458.027014846     -1.623485499     -0.000000459      0.000021543    2.20
  8   -458.027017319     -1.623487973     -0.000002473      0.000007375    2.26
               --- The Coupled-Cluster iterations have converged ---

----------------------
COUPLED CLUSTER ENERGY
----------------------

E(0)                                       ...   -456.396611811
E(CORR)(strong-pairs)                      ...     -1.623487973
E(CORR)(weak-pairs)                        ...     -0.006917535
E(CORR)(corrected)                         ...     -1.630405508
E(TOT)                                     ...   -458.027017319
Singles Norm <S|S>**1/2                    ...      0.052561329  
T1 diagnostic                              ...      0.007586574  

------------------
LARGEST AMPLITUDES
------------------
  18-> 30  18-> 30       0.032974
  24-> 30  24-> 30       0.032376
  26-> 30  26-> 30       0.032236
  28-> 30  28-> 30       0.032183
  22-> 30  22-> 30       0.032050
  21-> 30  21-> 30       0.031367
  25-> 32  25-> 32       0.030933
  11-> 32  11-> 32       0.030755
  24-> 31  24-> 31       0.030033
  23-> 32  23-> 32       0.030013
  22-> 31  22-> 31       0.029839
  29-> 32  29-> 32       0.029748
  27-> 32  27-> 32       0.029654
  28-> 31  28-> 31       0.029384
  19-> 32  19-> 32       0.029114
  26-> 31  26-> 31       0.029102


-------------------------------------------
DLPNO BASED TRIPLES CORRECTION
-------------------------------------------

Singles multiplier          ...  1.000000
TCutTNO                     ... 1.000e-09
TCutMP2Pairs                ... 1.000e-05
TCutDOStrong                ... 2.000e-02
TCutMKNStrong               ... 1.000e-02
TCutDOWeak                  ... 4.000e-02
TCutMKNWeak                 ... 1.000e-01

Fragment selection                          .... not used
Fock matrix occ-virt block is zero --> Setting DT_in_Triples to false.
Number of Triples that are to be computed   ...       485

 . . . . . . . . .
10% done  
20% done  
30% done  
40% done  
50% done  
60% done  
70% done  
80% done  
90% done               (      9.544 sec)
Triples timings:
Total time for T0               ...    10.882 sec
Total time for Iterative (T)    ...     0.000 sec
Total time of overall (T)       ...    11.385 sec

Triples List generation         ...     0.000 sec
TNO generation                  ...     1.332 sec
Pair density generation         ...     0.002 sec
Look up tables                  ...     0.000 sec
Generating 3-index integrals    ...     6.152 sec
  Make 4-ind.int. from 3-ind.int...     0.838 sec
  Projecting amplitudes (D + S) ...     1.377 sec
  Downprojecting integrals      ...     0.000 sec
  Energy contr. (sum over a,b,c)...     0.279 sec
Fitting ET(->0)                 ...     0.000 sec

Everything after 3-index        ...     3.392 sec

Timing details:
 TNO integrals                  ...     6.875 sec
   Reading 3-index integrals    ...     0.331 sec
   Sorting integrals            ...     1.002 sec
       Sorting integrals 1      ...     0.000 sec
       Sorting integrals 2      ...     0.666 sec
       Sorting integrals 3      ...     0.056 sec
       Sorting integrals 4      ...     0.006 sec
       Sorting integrals 5      ...     0.012 sec
       Sorting integrals 6      ...     0.262 sec
   Calculating local VM**-1/2   ...     0.052 sec
   Orthogonal. integrals        ...     0.099 sec
   Multipl. 3-index integrals   ...     5.391 sec
   All concerning IRIab (w/TNO) ...     0.371 sec

 Calculate W0/W1                ...     0.896 sec
 W 3-ext contribution           ...     0.518 sec
 W 3-int contribution           ...     0.162 sec
 Sorting W                      ...     0.176 sec

 V exchange contribution        ...     0.099 sec

 Timings for Triples without generation
     of 3-index integrals       ...     3.391 sec
       0 weak pairs             ...     2.005 sec
       1 weak pair              ...     1.386 sec
       2 weak pairs             ...     0.000 sec
       3 weak pairs             ...     0.000 sec
  Extra time for extrapolation  ...     0.000 sec

Number of Triples   (0, 1, 2, 3 weak pairs; overall):    278     207       0       0  (   485)
Number of Atoms     (0, 1, 2, 3 weak pairs; overall):   10.6     9.4     0.0     0.0  (    18)
Number of PAOs      (0, 1, 2, 3 weak pairs; overall):  217.8   181.7     0.0     0.0  (   348)
Number of AuxFcns   (0, 1, 2, 3 weak pairs; overall):  195.5   238.3     0.0     0.0  (   846)
Number of TNOs      (0, 1, 2, 3 weak pairs         ):   63.7    56.1     0.0     0.0
Aver. Number of NTNO, Atoms, PAOs, AuxFcns / Triples:    485    60.4    10.1   202.4   213.8

Triples Correction (T)                     ...     -0.048213341
Final correlation energy                   ...     -1.678618849
E(CCSD)                                    ...   -458.027017319
E(CCSD(T))                                 ...   -458.075230660



--------------------------------------------------------------------------------
                                    TIMINGS
--------------------------------------------------------------------------------


Total execution time                   ...       52.803 sec

Localization of occupied MO's          ...        0.201 sec (  0.4%)
Fock Matrix Formation                  ...        1.095 sec (  2.1%)
Global overlap, Fock, MKN matrices     ...        0.278 sec (  0.5%)
Differential overlap integrals         ...        0.623 sec (  1.2%)
Organizing maps                        ...        0.021 sec (  0.0%)
RI 3-index integral generations        ...        4.979 sec (  9.4%)
RI-PNO integral transformation         ...        9.953 sec ( 18.8%)
Initial Guess                          ...        3.543 sec (  6.7%)
DIIS Solver                            ...        0.323 sec (  0.6%)
State Vector Update                    ...        0.030 sec (  0.1%)
Sigma-vector construction              ...       19.846 sec ( 37.6%)
  <D|H|D>(0-ext)                       ...        1.610 sec (  8.1% of sigma)
  <D|H|D>(2-ext Fock)                  ...        0.004 sec (  0.0% of sigma)
  <D|H|D>(2-ext)                       ...        1.674 sec (  8.4% of sigma)
  <D|H|D>(4-ext)                       ...        1.424 sec (  7.2% of sigma)
  <D|H|D>(4-ext-corr)                  ...        6.227 sec ( 31.4% of sigma)
  CCSD doubles correction              ...        0.148 sec (  0.7% of sigma)
  <S|H|S>                              ...        1.596 sec (  8.0% of sigma)
  <S|H|D>(1-ext)                       ...        0.127 sec (  0.6% of sigma)
  <D|H|S>(1-ext)                       ...        0.004 sec (  0.0% of sigma)
  <S|H|D>(3-ext)                       ...        0.077 sec (  0.4% of sigma)
  Fock-dressing                        ...        3.971 sec ( 20.0% of sigma)
  Singles amplitudes                   ...        0.476 sec (  2.4% of sigma)
  (ik|jl)-dressing                     ...        1.766 sec (  8.9% of sigma)
  (ij|ab),(ia|jb)-dressing             ...        0.629 sec (  3.2% of sigma)
  Pair energies                        ...        0.004 sec (  0.0% of sigma)
Total Time for computing (T)           ...       11.386 sec ( 21.6% of ALL)


Maximum memory used throughout the entire MDCI-calculation: 515.2 MB

-------------------------   --------------------
FINAL SINGLE POINT ENERGY      -458.075230659994
-------------------------   --------------------



           ************************************************************
           *        Program running with 8 parallel MPI-processes     *
           *              working on a common directory               *
           ************************************************************

------------------------------------------------------------------------------
                              ORCA PROPERTY CALCULATIONS
------------------------------------------------------------------------------

GBWName                                 ... sp.gbw
Number of atoms                         ...     18
Number of basis functions               ...    384
Max core memory                         ...   6000 MB

Electric properties:
Dipole moment                           ... YES
Quadrupole moment                       ...  NO
Static polarizability (Dipole/Dipole)   ...  NO
Static polarizability (Dipole/Quad.)    ...  NO
Static polarizability (Quad./Quad.)     ...  NO
Static polarizability (Velocity)        ...  NO

Atomic electric properties:
Dipole moment                           ...  NO
Quadrupole moment                       ...  NO
Static polarizability                   ...  NO

Choice of electric origin               ... Center of mass
Position of electric origin             ...    -0.000973    -0.019413     0.000642

General magnetic properties:
Magnetizability                         ...  NO

EPR properties:
g-Tensor (aka g-matrix)                 ...  NO
Zero-Field splitting spin-orbit         ...  NO
Zero-field splitting spin-spin          ...  NO
Hyperfine couplings                     ...  NO (   0 nuclei)
Quadrupole couplings                    ...  NO (   0 nuclei)
Contact density                         ...  NO (   0 nuclei)

NMR properties:
Chemical shifts                         ...  NO (   0 nuclei)
Spin-rotation constants                 ...  NO (   0 nuclei)
Spin-spin couplings                     ...  NO (   0 nuclei,    0 pairs)

Choice of magnetic origin               ... GIAO
Position of magnetic origin             ...     0.000000     0.000000     0.000000

Properties with geometric perturbations:
SCF Hessian                             ...  NO
IR spectrum                             ...  NO
VCD spectrum                            ...  NO
X-ray spectroscopy properties:
SCF XES/XAS/RIXS spectra                ...  NO


-------------
DIPOLE MOMENT
-------------

Method             : SCF
Type of density    : Electron Density
Multiplicity       :   1
Irrep              :   0
Energy             :  -456.3966118107036891 Eh
Relativity type    : 
Basis              : AO
                                X                 Y                 Z
Electronic contribution:      0.012014379      -0.148038034      -0.006925833
Nuclear contribution   :      0.058375949       1.164758863      -0.038549118
                        -----------------------------------------
Total Dipole Moment    :      0.070390328       1.016720829      -0.045474951
                        -----------------------------------------
Magnitude (a.u.)       :      1.020168620
Magnitude (Debye)      :      2.593062559



--------------------
Rotational spectrum 
--------------------
 
Rotational constants in cm-1:             0.064343             0.036745             0.026834 
Rotational constants in MHz :          1928.956360          1101.593629           804.474509 

Dipole components along the rotational axes: 
x,y,z [a.u.] :     0.072522     1.016096    -0.055084 
x,y,z [Debye]:     0.184336     2.582710    -0.140013 

 

Dipole moment calculation done in   0.0 sec 

Maximum memory used throughout the entire PROP-calculation: 17.1 MB

--------------------------------
SUGGESTED CITATIONS FOR THIS RUN
--------------------------------

Below you find a list of papers that are relevant to this ORCA run
We neither can nor want to force you to cite these papers, but we appreciate if you do
You receive ORCA, which is the product of decades of hard work by many enthusiastic individuals, for free
The only thing we kindly ask in return is that you cite our papers,
We deeply appreciate it, if you show your appreciation for ORCA by not just citing the generic ORCA reference.

Please note that relegating all ORCA citations to the supporting information does *not* help us.
SI sections are not indexed - citations you put there will not count into any citation statistics
But we need these citations in order to attract the funding resources that allow us to do what we are doing

Therefore, if you are a happy ORCA user, please consider citing a few of the papers listed below in the main body of your paper

In addition to the list printed below, the program has created the file sp.bibtex that contains the list in bibtex format
You can import this file easily into all common literature databanks and citation aid programs


List of essential papers. We consider these as the minimum necessary citations

  1. Neese,F.
     Software update: the ORCA program system, version 5.0
     WIRES Comput. Molec. Sci., 2022 12(1)e1606
     doi.org/10.1002/wcms.1606

List of papers to cite with high priority. The work reported in these papers was absolutely
necessary for this run to complete.
Our perspective: the developers of density functionals and basis sets usually get cited in chemistry papers
Good! But without the algorithms to do something with them, the functionals or basis sets would not do anything.
Hence, in our opinion, the algorithm design and method developments papers are equally worthy of getting cited

  1. Neese,F.
     An improvement of the resolution of the identity approximation for the formation of the Coulomb matrix
     J. Comp. Chem., 2003 24(14)1740-1747
     doi.org/10.1002/jcc.10318
  2. Kossmann,S.; Neese,F.
     Comparison of two efficient approximate Hartee-Fock approaches
     Chem. Phys. Lett., 2009 481 240-243
     doi.org/10.1016/j.cplett.2009.09.073
  3. Neese,F.; Hansen,A.; Liakos,D.G.
     Efficient and accurate approximations to the local coupled cluster singles doubles method using a truncated pair natural orbital basis
     J. Chem. Phys., 2009 131 064103
     doi.org/10.1063/1.3173827
  4. Neese,F.; Wennmohs,F.; Hansen,A.
     Efficient and accurate local approximations to coupled-electron pair approaches: An attempt to revive the pair natural orbital method
     J. Chem. Phys., 2009 130 114108
     doi.org/10.1063/1.3086717
  5. Riplinger,C.; Neese,F.
     An efficient and near linear scaling pair natural orbital based local coupled cluster method
     J. Chem. Phys., 2013 138(3)Art. No. 034106
     doi.org/10.1063/1.4773581
  6. Riplinger,C.; Sandhoefer,B.; Hansen,A.; Neese,F.
     Natural triple excitations in local coupled cluster calculations with pair natural orbitals
     J. Chem. Phys., 2013 139(13)Art. No. 134101
     doi.org/10.1063/1.4821834
  7. Riplinger,C.; Pinski,P.; Becker,U.; Valeev,E.F.; Neese,F.
     Sparse maps-A systematic infrastructure for reduced-scaling electronic structure methods. II. Linear scaling domain based pair natural orbital coupled cluster theory
     J. Chem. Phys., 2016 144 
     doi.org/10.1063/1.4939030
  8. Bistoni,G.; Riplinger,C.; Minenkov,Y.; Cavallo,L.; Auer,A.A.; Neese,F.
     Treating Subvalence Correlation Effects in Domain Based Pair Natural Orbital Coupled Cluster Calculations: An Out-of-the-Box Approach
     J. Theo. Comp. Chem., 2017 13 3220-3227
     doi.org/10.1021/acs.jctc.7b00352
  9. Neese,F.
     The SHARK Integral Generation and Digestion System
     J. Comp. Chem., 2022  1-16
     doi.org/10.1002/jcc.26942

List of suggested additional citations. These are papers that are important in the 'surrounding' of 
of this run, or papers that preceded the highly important papers. If you like your results we are grateful for a citation.

  1. Neese,F.
     The ORCA program system
     WIRES Comput. Molec. Sci., 2012 2(1)73-78
     doi.org/10.1002/wcms.81
  2. Neese,F.
     Software update: the ORCA program system, version 4.0
     WIRES Comput. Molec. Sci., 2018 8(1)1-6
     doi.org/10.1002/wcms.1327
  3. Neese,F.; Wennmohs,F.; Becker,U.; Riplinger,C.
     The ORCA quantum chemistry program package
     J. Chem. Phys., 2020 152 Art. No. L224108
     doi.org/10.1063/5.0004608

List of optional additional citations

  1. Neese,F.
     Approximate second-order SCF convergence for spin unrestricted wavefunctions
     Chem. Phys. Lett., 2000 325(1-3)93-98
     doi.org/10.1016/s0009-2614(00)00662-x

Timings for individual modules:

Sum of individual times          ...       67.494 sec (=   1.125 min)
Startup calculation              ...        2.446 sec (=   0.041 min)   3.6 %
SCF iterations                   ...       11.303 sec (=   0.188 min)  16.7 %
Property integrals               ...        0.330 sec (=   0.005 min)   0.5 %
Property calculations            ...        0.321 sec (=   0.005 min)   0.5 %
MDCI module                      ...       53.094 sec (=   0.885 min)  78.7 %
                             ****ORCA TERMINATED NORMALLY****
TOTAL RUN TIME: 0 days 0 hours 1 minutes 7 seconds 861 msec
