
                                 *****************
                                 * O   R   C   A *
                                 *****************

                                            #,                                       
                                            ###                                      
                                            ####                                     
                                            #####                                    
                                            ######                                   
                                           ########,                                 
                                     ,,################,,,,,                         
                               ,,#################################,,                 
                          ,,##########################################,,             
                       ,#########################################, ''#####,          
                    ,#############################################,,   '####,        
                  ,##################################################,,,,####,       
                ,###########''''           ''''###############################       
              ,#####''   ,,,,##########,,,,          '''####'''          '####       
            ,##' ,,,,###########################,,,                        '##       
           ' ,,###''''                  '''############,,,                           
         ,,##''                                '''############,,,,        ,,,,,,###''
      ,#''                                            '''#######################'''  
     '                                                          ''''####''''         
             ,#######,   #######,   ,#######,      ##                                
            ,#'     '#,  ##    ##  ,#'     '#,    #''#        ,####,   ,####,        
            ##       ##  ##   ,#'  ##            #'  '#       #'       #'  '#        
            ##       ##  #######   ##           ,######,      #####,   #    #        
            '#,     ,#'  ##    ##  '#,     ,#' ,#      #,     #,   #   #,  ,#        
             '#######'   ##     ##  '#######'  #'      '#     '####' # '####'        



                #########################################################
                #                        -***-                          #
                #          Department of theory and spectroscopy        #
                #                                                       #
                #                      Frank Neese                      #
                #                                                       #
                #     Directorship, Architecture, Infrastructure        #
                #                    SHARK, DRIVERS                     #
                #        Core code/Algorithms in most modules           #
                #                                                       #
                #        Max Planck Institute fuer Kohlenforschung      #
                #                Kaiser Wilhelm Platz 1                 #
                #                 D-45470 Muelheim/Ruhr                 #
                #                      Germany                          #
                #                                                       #
                #                  All rights reserved                  #
                #                        -***-                          #
                #########################################################


                         Program Version 6.0.0  -   RELEASE  -


 With contributions from (in alphabetic order):
   Daniel Aravena         : Magnetic Suceptibility
   Michael Atanasov       : Ab Initio Ligand Field Theory (pilot matlab implementation)
   Alexander A. Auer      : GIAO ZORA, VPT2 properties, NMR spectrum
   Ute Becker             : All parallelization in ORCA, NUMFREQ, NUMCALC
   Giovanni Bistoni       : ED, misc. LED, open-shell LED, HFLD
   Martin Brehm           : Molecular dynamics
   Dmytro Bykov           : pre 5.0 version of the SCF Hessian
   Marcos Casanova-Páez   : Triplet and SCS-CIS(D). UHF-(DLPNO)-IP/EA/STEOM-CCSD. UHF-CVS-IP/STEOM-CCSD
   Vijay G. Chilkuri      : MRCI spin determinant printing, contributions to CSF-ICE
   Pauline Colinet        : FMM embedding
   Dipayan Datta          : RHF DLPNO-CCSD density
   Achintya Kumar Dutta   : EOM-CC, STEOM-CC
   Nicolas Foglia         : Exact transition moments, OPA infrastructure, MCD improvements
   Dmitry Ganyushin       : Spin-Orbit,Spin-Spin,Magnetic field MRCI
   Miquel Garcia          : C-PCM and meta-GGA Hessian, CCSD/C-PCM, Gaussian charge scheme
   Tiago L. C. Gouveia    : GS-ROHF, GS-ROCIS
   Yang Guo               : DLPNO-NEVPT2, F12-NEVPT2, CIM, IAO-localization
   Andreas Hansen         : Spin unrestricted coupled pair/coupled cluster methods
   Ingolf Harden          : AUTO-CI MPn and infrastructure 
   Benjamin Helmich-Paris : MC-RPA, TRAH-(SCF,CASSCF), AVAS, COSX integrals, SCF dyn. polar.
   Lee Huntington         : MR-EOM, pCC
   Robert Izsak           : Overlap fitted RIJCOSX, COSX-SCS-MP3, EOM
   Riya Kayal             : Wick's Theorem for AUTO-CI, AUTO-CI UHF-CCSDT
   Emily Kempfer          : AUTO-CI, RHF CISDT and CCSDT
   Christian Kollmar      : KDIIS, OOCD, Brueckner-CCSD(T), CCSD density, CASPT2, CASPT2-K, improved NEVPT2
   Axel Koslowski         : Symmetry handling
   Simone Kossmann        : Meta GGA functionals, TD-DFT gradient, OOMP2, (MP2 Hessian; deprecated post 5.0)
   Lucas Lang             : DCDCAS
   Marvin Lechner         : AUTO-CI (C++ implementation), FIC-MRCC
   Spencer Leger          : CASSCF response
   Dagmar Lenk            : GEPOL surface, SMD, ORCA-2-JSON
   Dimitrios Liakos       : Extrapolation schemes; Compound Job, initial MDCI parallelization
   Dimitrios Manganas     : Further ROCIS development; embedding schemes. LFT, Crystal Embedding
   Dimitrios Pantazis     : SARC Basis sets
   Anastasios Papadopoulos: AUTO-CI, single reference methods and gradients
   Taras Petrenko         : pre 6.0 DFT Hessian and TD-DFT gradient, (ASA, deprecated), ECA, 1-Electron XAS/XES, NRVS
   Peter Pinski           : DLPNO-MP2, DLPNO-MP2 Gradient
   Christoph Reimann      : Effective Core Potentials
   Marius Retegan         : Local ZFS, SOC
   Christoph Riplinger    : Optimizer, TS searches, QM/MM, DLPNO-CCSD(T), (RO)-DLPNO pert. Triples
   Michael Roemelt        : Original ROCIS implementation
   Masaaki Saitow         : Open-shell DLPNO-CCSD energy and density
   Barbara Sandhoefer     : DKH picture change effects
   Kantharuban Sivalingam : CASSCF convergence/infrastructure, NEVPT2 and variants, FIC-MRCI
   Bernardo de Souza      : ESD, SOC TD-DFT
   Georgi Stoychev        : AutoAux, RI-MP2 NMR, DLPNO-MP2 response, X2C
   Van Anh Tran           : RI-MP2 g-tensors
   Willem Van den Heuvel  : Paramagnetic NMR
   Zikuan Wang            : NOTCH, Electric field optimization 
   Frank Wennmohs         : Technical directorship and infrastructure
   Hang Xu                : AUTO-CI-Response properties 


 We gratefully acknowledge several colleagues who have allowed us to
 interface, adapt or use parts of their codes:
   Stefan Grimme, W. Hujo, H. Kruse, P. Pracht,  : VdW corrections, initial TS optimization,
                  C. Bannwarth, S. Ehlert,         DFT functionals, gCP, sTDA/sTD-DF
                  L. Wittmann, M. Mueller
   Ed Valeev, F. Pavosevic, A. Kumar             : LibInt (2-el integral package), F12 methods
   Garnet Chan, S. Sharma, J. Yang, R. Olivares  : DMRG
   Ulf Ekstrom                                   : XCFun DFT Library
   Mihaly Kallay                                 : mrcc  (arbitrary order and MRCC methods)
   Frank Weinhold                                : gennbo (NPA and NBO analysis)
   Simon Mueller                                 : openCOSMO-RS
   Christopher J. Cramer and Donald G. Truhlar   : smd solvation model
   Lars Goerigk                                  : TD-DFT with DH, B97 family of functionals
   V. Asgeirsson, H. Jonsson                     : NEB implementation
   FAccTs GmbH                                   : IRC, NEB, NEB-TS, DLPNO-Multilevel, CI-OPT
                                                   MM, QMMM, 2- and 3-layer-ONIOM, Crystal-QMMM,
                                                   LR-CPCM, SF, NACMEs, symmetry and pop. for TD-DFT,
                                                   nearIR, NL-DFT gradient (VV10), updates on ESD,
                                                   ML-optimized integration grids, MBIS, APM,
                                                   GOAT, DOCKER, SOLVATOR, interface openCOSMO-RS
   S Lehtola, MJT Oliveira, MAL Marques          : LibXC Library
   Liviu Ungur et al                             : ANISO software


 Your calculation uses the libint2 library for the computation of 2-el integrals
 For citations please refer to: http://libint.valeyev.net

 Your ORCA version has been built with support for libXC version: 6.2.2
 For citations please refer to: https://libxc.gitlab.io

 This ORCA versions uses:
   CBLAS   interface :  Fast vector & matrix operations
   LAPACKE interface :  Fast linear algebra routines
   SCALAPACK package :  Parallel linear algebra routines
   Shared memory     :  Shared parallel matrices
   BLAS/LAPACK       :  OpenBLAS 0.3.27  USE64BITINT DYNAMIC_ARCH NO_AFFINITY Haswell SINGLE_THREADED
        Core in use  :  Haswell
   Copyright (c) 2011-2014, The OpenBLAS Project


NOTE: MaxCore=6000 MB was set to SCF,MP2,MDCI,CIPSI,MRCI and CIS
      => If you want to overwrite this, your respective input block should be placed after the MaxCore statement
================================================================================

----- Orbital basis set information -----
Your calculation utilizes the basis: cc-pVTZ 
       H, B-Ne : Obtained from the ccRepo (grant-hill.group.shef.ac.uk/ccrepo) Feb. 2017
                 T. H. Dunning, Jr., J. Chem. Phys. 90, 1007 (1989)
            He : Obtained from the ccRepo (grant-hill.group.shef.ac.uk/ccrepo) Feb. 2017
                 D. E. Woon, T. H. Dunning, Jr., J. Chem. Phys. 100, 2975 (1994)
  Li-Be, Na-Mg : Obtained from the ccRepo (grant-hill.group.shef.ac.uk/ccrepo) Feb. 2017
                 B. P. Prascher, D. E. Woon, K. A. Peterson, T. H. Dunning, Jr., A. K. Wilson, Theor. Chem. Acc. 128, 69 (2011)
         Al-Ar : Obtained from the ccRepo (grant-hill.group.shef.ac.uk/ccrepo) Feb. 2017
                 D. E. Woon, T. H. Dunning, Jr., J. Chem. Phys. 98, 1358 (1993)
            Ca : Obtained from the Peterson Research Group Website (tyr0.chem.wsu.edu/~kipeters) Feb. 2017
                 J. Koput, K. A. Peterson, J. Phys. Chem. 106, 9595 (2002)
         Sc-Zn : Obtained from the ccRepo (grant-hill.group.shef.ac.uk/ccrepo) Feb. 2017
                 N. B. Balabanov, K. A. Peterson, J. Chem. Phys. 123, 064107 (2005)
                 N. B. Balabanov, K. A. Peterson, J. Chem. Phys. 125, 074110 (2006)
         Ga-Kr : Obtained from the ccRepo (grant-hill.group.shef.ac.uk/ccrepo) Feb. 2017
                 A. K. Wilson, D. E. Woon, K. A. Peterson, T. H. Dunning, Jr., J. Chem. Phys. 110, 7667 (1999)
             Y : Obtained from the ccRepo (grant-hill.group.shef.ac.uk/ccrepo) Feb. 2017
                 K. A. Peterson, D. Figgen, M. Dolg, H. Stoll, J. Chem. Phys. 126, 124101 (2007)
        Ag, Au : Obtained from the Peterson Research Group Website (tyr0.chem.wsu.edu/~kipeters) Feb. 2017
                 K. A. Peterson, C. Puzzarini, Theor. Chem. Acc. 114, 283 (2005)

----- AuxJK basis set information -----
Your calculation utilizes the auxiliary basis: cc-pVTZ/JK 
  H, B-F, Al-Cl, Ga-Br : Obtained from the TURBOMOLE 7.0 basis set library

================================================================================
                                        WARNINGS
                       Please study these warnings very carefully!
================================================================================


================================================================================
                                       INPUT FILE
================================================================================
NAME = sp.inp
|  1> %maxcore  6000
|  2> %pal nprocs 8 end
|  3> ! HF RIJK cc-pVTZ cc-pVTZ/JK tightSCF noautostart miniprint nopop
|  4> %method
|  5> end
|  6> * xyz   0   1
|  7> O      -1.502169000e+00  -1.913590000e-01   1.434927000e+00
|  8> H      -2.006698000e+00  -4.223270000e-01   2.219847000e+00
|  9> H      -6.010540000e-01  -5.969720000e-01   1.553718000e+00
| 10> O      -1.744575000e+00  -3.823480000e-01  -1.309144000e+00
| 11> H      -2.516835000e+00  -7.667650000e-01  -1.733766000e+00
| 12> H      -1.888941000e+00  -4.796530000e-01  -3.476240000e-01
| 13> O      -5.604090000e-01   2.017830000e+00  -1.219840000e-01
| 14> H      -9.898310000e-01   1.592736000e+00  -8.774190000e-01
| 15> H      -9.477200000e-01   1.533567000e+00   6.252280000e-01
| 16> O       9.648030000e-01  -1.165765000e+00   1.439987000e+00
| 17> H       1.542224000e+00  -3.936920000e-01   1.344373000e+00
| 18> H       9.795570000e-01  -1.522041000e+00   5.278330000e-01
| 19> O       9.747050000e-01  -1.401503000e+00  -1.335970000e+00
| 20> H       1.470709000e+00  -5.709330000e-01  -1.277710000e+00
| 21> H       6.516100000e-02  -1.118951000e+00  -1.522886000e+00
| 22> O       2.002280000e+00   1.057824000e+00  -1.245020000e-01
| 23> H       2.674716000e+00   1.735342000e+00  -2.379950000e-01
| 24> H       1.141637000e+00   1.532266000e+00  -1.401210000e-01
| 25>  *
| 26> 
| 27>                          ****END OF INPUT****
================================================================================

                       ****************************
                       * Single Point Calculation *
                       ****************************

---------------------------------
CARTESIAN COORDINATES (ANGSTROEM)
---------------------------------
  O     -1.502169   -0.191359    1.434927
  H     -2.006698   -0.422327    2.219847
  H     -0.601054   -0.596972    1.553718
  O     -1.744575   -0.382348   -1.309144
  H     -2.516835   -0.766765   -1.733766
  H     -1.888941   -0.479653   -0.347624
  O     -0.560409    2.017830   -0.121984
  H     -0.989831    1.592736   -0.877419
  H     -0.947720    1.533567    0.625228
  O      0.964803   -1.165765    1.439987
  H      1.542224   -0.393692    1.344373
  H      0.979557   -1.522041    0.527833
  O      0.974705   -1.401503   -1.335970
  H      1.470709   -0.570933   -1.277710
  H      0.065161   -1.118951   -1.522886
  O      2.002280    1.057824   -0.124502
  H      2.674716    1.735342   -0.237995
  H      1.141637    1.532266   -0.140121

----------------------------
CARTESIAN COORDINATES (A.U.)
----------------------------
  NO LB      ZA    FRAG     MASS         X           Y           Z
   0 O     8.0000    0    15.999   -2.838688   -0.361616    2.711619
   1 H     1.0000    0     1.008   -3.792110   -0.798082    4.194903
   2 H     1.0000    0     1.008   -1.135827   -1.128114    2.936102
   3 O     8.0000    0    15.999   -3.296769   -0.722533   -2.473924
   4 H     1.0000    0     1.008   -4.756129   -1.448976   -3.276343
   5 H     1.0000    0     1.008   -3.569581   -0.906413   -0.656914
   6 O     8.0000    0    15.999   -1.059020    3.813146   -0.230516
   7 H     1.0000    0     1.008   -1.870510    3.009835   -1.658082
   8 H     1.0000    0     1.008   -1.790931    2.898022    1.181510
   9 O     8.0000    0    15.999    1.823213   -2.202977    2.721181
  10 H     1.0000    0     1.008    2.914381   -0.743970    2.540497
  11 H     1.0000    0     1.008    1.851094   -2.876241    0.997460
  12 O     8.0000    0    15.999    1.841926   -2.648457   -2.524617
  13 H     1.0000    0     1.008    2.779237   -1.078907   -2.414522
  14 H     1.0000    0     1.008    0.123136   -2.114511   -2.877837
  15 O     8.0000    0    15.999    3.783761    1.998998   -0.235275
  16 H     1.0000    0     1.008    5.054481    3.279321   -0.449745
  17 H     1.0000    0     1.008    2.157381    2.895563   -0.264790



           ************************************************************
           *        Program running with 8 parallel MPI-processes     *
           *              working on a common directory               *
           ************************************************************
------------------------------------------------------------------------------
                   ___                                                        
                  /   \      - P O W E R E D   B Y -                         
                 /     \                                                     
                 |  |  |   _    _      __       _____    __    __             
                 |  |  |  | |  | |    /  \     |  _  \  |  |  /  |          
                  \  \/   | |  | |   /    \    | | | |  |  | /  /          
                 / \  \   | |__| |  /  /\  \   | |_| |  |  |/  /          
                |  |  |   |  __  | /  /__\  \  |    /   |      \           
                |  |  |   | |  | | |   __   |  |    \   |  |\   \          
                \     /   | |  | | |  |  |  |  | |\  \  |  | \   \       
                 \___/    |_|  |_| |__|  |__|  |_| \__\ |__|  \__/        
                                                                              
                      - O R C A' S   B I G   F R I E N D -                    
                                      &                                       
                       - I N T E G R A L  F E E D E R -                       
                                                                              
 v1 FN, 2020, v2 2021, v3 2022-2024                                           
------------------------------------------------------------------------------


----------------------
SHARK INTEGRAL PACKAGE
----------------------

Number of atoms                             ...     18
Number of basis functions                   ...    384
Number of shells                            ...    168
Maximum angular momentum                    ...      3
Integral batch strategy                     ... SHARK/LIBINT Hybrid
RI-J (if used) integral strategy            ... SPLIT-RIJ (Revised 2003 algorithm where possible)
Printlevel                                  ...      1
Contraction scheme used                     ... PARTIAL GENERAL contraction
Prescreening option                         ... SCHWARTZ
   Thresh                                   ... 2.500e-11
   Tcut                                     ... 2.500e-12
   Tpresel                                  ... 2.500e-12 
Coulomb Range Separation                    ... NOT USED
Exchange Range Separation                   ... NOT USED
Multipole approximations                    ... NOT USED
Finite Nucleus Model                        ... NOT USED
CABS basis                                  ... NOT available
Auxiliary Coulomb fitting basis             ... NOT available
Auxiliary J/K fitting basis                 ... AVAILABLE
   # of basis functions in Aux-JK           ...    834
   # of shells in Aux-JK                    ...    270
   Maximum angular momentum in Aux-JK       ...      4
Auxiliary Correlation fitting basis         ... NOT available
Auxiliary 'external' fitting basis          ... NOT available

Checking pre-screening integrals            ... done (  0.0 sec) Dimension = 168
Save PGC pre-screening integrals            ... done (  0.0 sec) Dimension = 168
Calculate PGC overlap integrals             ... done (  0.0 sec) Dimension = 132
Calculating pre-screening integrals (ORCA)  ... done (  0.1 sec) Dimension = 132
Check shell pair data                       ... done (  0.0 sec)
Shell pair information
Shell pair cut-off parameter TPreSel        ...   2.5e-12
Total number of shell pairs                 ...     14196
Shell pairs after pre-screening             ...     10482
Total number of primitive shell pairs       ...     20964
Primitive shell pairs kept                  ...     13621
          la=0 lb=0:   3144 shell pairs
          la=1 lb=0:   3154 shell pairs
          la=1 lb=1:    801 shell pairs
          la=2 lb=0:   1543 shell pairs
          la=2 lb=1:    877 shell pairs
          la=2 lb=2:    257 shell pairs
          la=3 lb=0:    347 shell pairs
          la=3 lb=1:    223 shell pairs
          la=3 lb=2:    121 shell pairs
          la=3 lb=3:     15 shell pairs

Calculating one electron integrals          ... done (  0.0 sec)
Calculating RI/JK V-Matrix + Cholesky decomp... done (  0.0 sec)
Calculating Nuclear repulsion               ... done (  0.0 sec) ENN=    304.909314026963 Eh

Diagonalization of the overlap matrix:
Smallest eigenvalue                        ... 1.348e-03
Time for diagonalization                   ...    0.018 sec
Threshold for overlap eigenvalues          ... 1.000e-07
Number of eigenvalues below threshold      ... 0
Time for construction of square roots      ...    0.009 sec
Total time needed                          ...    0.029 sec

-------------------
DFT GRID GENERATION
-------------------

General Integration Accuracy     IntAcc      ... 4.388
Radial Grid Type                 RadialGrid  ... OptM3 with GC (2021)
Angular Grid (max. ang.)         AngularGrid ... 4 (Lebedev-302)
Angular grid pruning method      GridPruning ... 4 (adaptive)
Weight generation scheme         WeightScheme... mBecke (2022)
Basis function cutoff            BFCut       ... 1.0000e-11
Integration weight cutoff        WCut        ... 1.0000e-14
Partially contracted basis set               ... off
Rotationally invariant grid construction     ... off
Angular grids for H and He will be reduced by one unit

Total number of grid points                  ...    75334
Total number of batches                      ...     1185
Average number of points per batch           ...       63
Average number of grid points per atom       ...     4185

---------------------
SHARK GRID GENERATION
---------------------

General Integration Accuracy     IntAcc      ... 4.388
Radial Grid Type                 RadialGrid  ... OptM3 with GC (2021)
Angular Grid (max. ang.)         AngularGrid ... 4 (Lebedev-302)
Angular grid pruning method      GridPruning ... 4 (adaptive)
Weight generation scheme         WeightScheme... mBecke (2022)
Basis function cutoff            BFCut       ... 1.0000e-11
Integration weight cutoff        WCut        ... 1.0000e-14
Partially contracted basis set               ... off
Rotationally invariant grid construction     ... off
Angular grids for H and He will be reduced by one unit
Steep s-basis detected: some atoms will have their radial
                        grid points doubled.

Total number of grid points                  ...   112330
Total number of batches                      ...     1764
Average number of points per batch           ...       63
Average number of grid points per atom       ...     6241
Initializing property integral containers    ... done (  0.0 sec)

SHARK setup successfully completed in   2.1 seconds

Maximum memory used throughout the entire STARTUP-calculation: 36.8 MB


           ************************************************************
           *        Program running with 8 parallel MPI-processes     *
           *              working on a common directory               *
           ************************************************************
Loading Hartree-Fock densities                     ... done
Calculating cut-offs                               ... done
Initializing the effective Hamiltonian             ... done
Setting up the integral package (SHARK)            ... done
Starting the Coulomb interaction                   ... done (   0.1 sec)
Making the grid                                    ... done (   0.2 sec)
Mapping shells                                     ... done
Starting the XC term evaluation                    ... done (   0.0 sec)
Transforming the Hamiltonian                       ... done (   0.0 sec)
Diagonalizing the Hamiltonian                      ... done (   0.0 sec)
Back transforming the eigenvectors                 ... done (   0.0 sec)
Now organizing SCF variables                       ... done
             **** ENERGY FILE WAS UPDATED (sp.en.tmp) ****
Finished Guess after   0.4 sec
Maximum memory used throughout the entire GUESS-calculation: 20.3 MB


           ************************************************************
           *        Program running with 8 parallel MPI-processes     *
           *              working on a common directory               *
           ************************************************************
----------------------------------------D-I-I-S--------------------------------------------
Iteration    Energy (Eh)           Delta-E    RMSDP     MaxDP     DIISErr   Damp  Time(sec)
-------------------------------------------------------------------------------------------
    1    -455.9015654730878282     0.00e+00  9.45e-04  4.11e-02  3.53e-01  0.700   0.7
    2    -455.3714471811758244     5.30e-01  1.05e-03  4.99e-02  3.29e-01  0.700   0.8
                               ***Turning on AO-DIIS***
    3    -455.4244876625705842    -5.30e-02  7.85e-04  3.65e-02  1.89e-01  0.700   0.8
    4    -455.7613055086778218    -3.37e-01  2.59e-04  1.05e-02  8.53e-02  0.700   0.7
    5    -456.1914626691997796    -4.30e-01  5.36e-04  2.15e-02  4.96e-02  0.000   0.8
    6    -456.3884219563772717    -1.97e-01  1.65e-04  9.38e-03  3.48e-02  0.000   0.7
    7    -456.3924230845366878    -4.00e-03  1.30e-04  6.78e-03  2.69e-02  0.000   0.8
    8    -456.3950209780018099    -2.60e-03  1.00e-04  4.34e-03  1.67e-02  0.000   0.7
    9    -456.3961751913953435    -1.15e-03  9.01e-05  4.39e-03  8.57e-03  0.000   0.8
                              *** Initializing SOSCF ***
---------------------------------------S-O-S-C-F--------------------------------------
Iteration    Energy (Eh)           Delta-E    RMSDP     MaxDP     MaxGrad    Time(sec)
--------------------------------------------------------------------------------------
   10    -456.3965282127714431    -3.53e-04  1.25e-05  6.94e-04  6.34e-04     0.8
   11    -456.3965327656628119    -4.55e-06  5.67e-06  1.59e-04  6.84e-05     0.7
   12    -456.3965334677509986    -7.02e-07  3.68e-06  1.06e-04  3.31e-05     0.7
   13    -456.3965335935474172    -1.26e-07  6.26e-07  3.06e-05  9.07e-06     0.7
   14    -456.3965336033358540    -9.79e-09  1.70e-07  5.07e-06  3.56e-06     0.7
                 **** Energy Check signals convergence ****

               *****************************************************
               *                     SUCCESS                       *
               *           SCF CONVERGED AFTER  14 CYCLES          *
               *****************************************************

             **** ENERGY FILE WAS UPDATED (sp.en.tmp) ****

----------------
TOTAL SCF ENERGY
----------------

Total Energy       :       -456.39653360333585 Eh          -12419.18106 eV

Components:
Nuclear Repulsion  :        304.90931402696270 Eh            8297.00425 eV
Electronic Energy  :       -761.30584763029856 Eh          -20716.18530 eV
One Electron Energy:      -1238.02898638806914 Eh          -33688.48141 eV
Two Electron Energy:        476.72313875777058 Eh           12972.29610 eV

Virial components:
Potential Energy   :       -912.27712315725807 Eh          -24824.32257 eV
Kinetic Energy     :        455.88058955392216 Eh           12405.14151 eV
Virial Ratio       :          2.00113175261513

---------------
SCF CONVERGENCE
---------------

  Last Energy change         ...    9.7884e-09  Tolerance :   1.0000e-08
  Last MAX-Density change    ...    5.0714e-06  Tolerance :   1.0000e-07
  Last RMS-Density change    ...    1.7029e-07  Tolerance :   5.0000e-09
  Last DIIS Error            ...    6.3408e-04  Tolerance :   5.0000e-07
  Last Orbital Gradient      ...    3.5649e-06  Tolerance :   1.0000e-05
  Last Orbital Rotation      ...    2.6871e-06  Tolerance :   1.0000e-05


----------------
ORBITAL ENERGIES
----------------

  NO   OCC          E(Eh)            E(eV) 
   0   2.0000     -20.573944      -559.8455 
   1   2.0000     -20.568971      -559.7102 
   2   2.0000     -20.557966      -559.4107 
   3   2.0000     -20.557559      -559.3996 
   4   2.0000     -20.547049      -559.1136 
   5   2.0000     -20.537342      -558.8495 
   6   2.0000      -1.371902       -37.3314 
   7   2.0000      -1.356961       -36.9248 
   8   2.0000      -1.353196       -36.8223 
   9   2.0000      -1.343932       -36.5703 
  10   2.0000      -1.333377       -36.2830 
  11   2.0000      -1.322117       -35.9766 
  12   2.0000      -0.744379       -20.2556 
  13   2.0000      -0.727920       -19.8077 
  14   2.0000      -0.721336       -19.6286 
  15   2.0000      -0.707181       -19.2434 
  16   2.0000      -0.697259       -18.9734 
  17   2.0000      -0.693558       -18.8727 
  18   2.0000      -0.624707       -16.9992 
  19   2.0000      -0.617618       -16.8062 
  20   2.0000      -0.594716       -16.1831 
  21   2.0000      -0.583518       -15.8783 
  22   2.0000      -0.574620       -15.6362 
  23   2.0000      -0.548899       -14.9363 
  24   2.0000      -0.520971       -14.1764 
  25   2.0000      -0.519617       -14.1395 
  26   2.0000      -0.508359       -13.8331 
  27   2.0000      -0.504864       -13.7380 
  28   2.0000      -0.496370       -13.5069 
  29   2.0000      -0.481144       -13.0926 
  30   0.0000       0.123403         3.3580 
  31   0.0000       0.152240         4.1427 
  32   0.0000       0.158579         4.3151 
  33   0.0000       0.219186         5.9643 
  34   0.0000       0.229087         6.2338 
  35   0.0000       0.246438         6.7059 
  36   0.0000       0.284008         7.7282 
  37   0.0000       0.288175         7.8416 
  38   0.0000       0.308642         8.3986 
  39   0.0000       0.324174         8.8212 
  40   0.0000       0.336592         9.1591 
*Only the first 10 virtual orbitals were printed.
Total SCF time: 0 days 0 hours 0 min 10 sec 
Finished LeanSCF after  10.6 sec

Maximum memory used throughout the entire LEANSCF-calculation: 42.1 MB

-------------------------   --------------------
FINAL SINGLE POINT ENERGY      -456.396533603336
-------------------------   --------------------



           ************************************************************
           *        Program running with 8 parallel MPI-processes     *
           *              working on a common directory               *
           ************************************************************

------------------------------------------------------------------------------
                              ORCA PROPERTY CALCULATIONS
------------------------------------------------------------------------------

GBWName                                 ... sp.gbw
Number of atoms                         ...     18
Number of basis functions               ...    384
Max core memory                         ...   6000 MB

Electric properties:
Dipole moment                           ... YES
Quadrupole moment                       ...  NO
Static polarizability (Dipole/Dipole)   ...  NO
Static polarizability (Dipole/Quad.)    ...  NO
Static polarizability (Quad./Quad.)     ...  NO
Static polarizability (Velocity)        ...  NO

Atomic electric properties:
Dipole moment                           ...  NO
Quadrupole moment                       ...  NO
Static polarizability                   ...  NO

Choice of electric origin               ... Center of mass
Position of electric origin             ...     0.018678    -0.009062    -0.002315

General magnetic properties:
Magnetizability                         ...  NO

EPR properties:
g-Tensor (aka g-matrix)                 ...  NO
Zero-Field splitting spin-orbit         ...  NO
Zero-field splitting spin-spin          ...  NO
Hyperfine couplings                     ...  NO (   0 nuclei)
Quadrupole couplings                    ...  NO (   0 nuclei)
Contact density                         ...  NO (   0 nuclei)

NMR properties:
Chemical shifts                         ...  NO (   0 nuclei)
Spin-rotation constants                 ...  NO (   0 nuclei)
Spin-spin couplings                     ...  NO (   0 nuclei,    0 pairs)

Choice of magnetic origin               ... GIAO
Position of magnetic origin             ...     0.000000     0.000000     0.000000

Properties with geometric perturbations:
SCF Hessian                             ...  NO
IR spectrum                             ...  NO
VCD spectrum                            ...  NO
X-ray spectroscopy properties:
SCF XES/XAS/RIXS spectra                ...  NO


-------------
DIPOLE MOMENT
-------------

Method             : SCF
Type of density    : Electron Density
Multiplicity       :   1
Irrep              :   0
Energy             :  -456.3965336033358540 Eh
Relativity type    : 
Basis              : AO
                                X                 Y                 Z
Electronic contribution:      0.124265194      -0.091420743       0.016891744
Nuclear contribution   :     -1.120644582       0.543713783       0.138879372
                        -----------------------------------------
Total Dipole Moment    :     -0.996379388       0.452293040       0.155771116
                        -----------------------------------------
Magnitude (a.u.)       :      1.105262647
Magnitude (Debye)      :      2.809354387



--------------------
Rotational spectrum 
--------------------
 
Rotational constants in cm-1:             0.057134             0.047461             0.045643 
Rotational constants in MHz :          1712.820498          1422.851719          1368.343778 

Dipole components along the rotational axes: 
x,y,z [a.u.] :    -1.026028     0.382660     0.149814 
x,y,z [Debye]:    -2.607955     0.972644     0.380797 

 

Dipole moment calculation done in   0.0 sec 

Maximum memory used throughout the entire PROP-calculation: 17.9 MB

--------------------------------
SUGGESTED CITATIONS FOR THIS RUN
--------------------------------

Below you find a list of papers that are relevant to this ORCA run
We neither can nor want to force you to cite these papers, but we appreciate if you do
You receive ORCA, which is the product of decades of hard work by many enthusiastic individuals, for free
The only thing we kindly ask in return is that you cite our papers,
We deeply appreciate it, if you show your appreciation for ORCA by not just citing the generic ORCA reference.

Please note that relegating all ORCA citations to the supporting information does *not* help us.
SI sections are not indexed - citations you put there will not count into any citation statistics
But we need these citations in order to attract the funding resources that allow us to do what we are doing

Therefore, if you are a happy ORCA user, please consider citing a few of the papers listed below in the main body of your paper

In addition to the list printed below, the program has created the file sp.bibtex that contains the list in bibtex format
You can import this file easily into all common literature databanks and citation aid programs


List of essential papers. We consider these as the minimum necessary citations

  1. Neese,F.
     Software update: the ORCA program system, version 5.0
     WIRES Comput. Molec. Sci., 2022 12(1)e1606
     doi.org/10.1002/wcms.1606

List of papers to cite with high priority. The work reported in these papers was absolutely
necessary for this run to complete.
Our perspective: the developers of density functionals and basis sets usually get cited in chemistry papers
Good! But without the algorithms to do something with them, the functionals or basis sets would not do anything.
Hence, in our opinion, the algorithm design and method developments papers are equally worthy of getting cited

  1. Neese,F.
     An improvement of the resolution of the identity approximation for the formation of the Coulomb matrix
     J. Comp. Chem., 2003 24(14)1740-1747
     doi.org/10.1002/jcc.10318
  2. Kossmann,S.; Neese,F.
     Comparison of two efficient approximate Hartee-Fock approaches
     Chem. Phys. Lett., 2009 481 240-243
     doi.org/10.1016/j.cplett.2009.09.073
  3. Neese,F.
     The SHARK Integral Generation and Digestion System
     J. Comp. Chem., 2022  1-16
     doi.org/10.1002/jcc.26942

List of suggested additional citations. These are papers that are important in the 'surrounding' of 
of this run, or papers that preceded the highly important papers. If you like your results we are grateful for a citation.

  1. Neese,F.
     The ORCA program system
     WIRES Comput. Molec. Sci., 2012 2(1)73-78
     doi.org/10.1002/wcms.81
  2. Neese,F.
     Software update: the ORCA program system, version 4.0
     WIRES Comput. Molec. Sci., 2018 8(1)1-6
     doi.org/10.1002/wcms.1327
  3. Neese,F.; Wennmohs,F.; Becker,U.; Riplinger,C.
     The ORCA quantum chemistry program package
     J. Chem. Phys., 2020 152 Art. No. L224108
     doi.org/10.1063/5.0004608

List of optional additional citations

  1. Neese,F.
     Approximate second-order SCF convergence for spin unrestricted wavefunctions
     Chem. Phys. Lett., 2000 325(1-3)93-98
     doi.org/10.1016/s0009-2614(00)00662-x

Timings for individual modules:

Sum of individual times          ...       13.852 sec (=   0.231 min)
Startup calculation              ...        2.282 sec (=   0.038 min)  16.5 %
SCF iterations                   ...       11.295 sec (=   0.188 min)  81.5 %
Property calculations            ...        0.275 sec (=   0.005 min)   2.0 %
                             ****ORCA TERMINATED NORMALLY****
TOTAL RUN TIME: 0 days 0 hours 0 minutes 14 seconds 194 msec
