
                                 *****************
                                 * O   R   C   A *
                                 *****************

                                            #,                                       
                                            ###                                      
                                            ####                                     
                                            #####                                    
                                            ######                                   
                                           ########,                                 
                                     ,,################,,,,,                         
                               ,,#################################,,                 
                          ,,##########################################,,             
                       ,#########################################, ''#####,          
                    ,#############################################,,   '####,        
                  ,##################################################,,,,####,       
                ,###########''''           ''''###############################       
              ,#####''   ,,,,##########,,,,          '''####'''          '####       
            ,##' ,,,,###########################,,,                        '##       
           ' ,,###''''                  '''############,,,                           
         ,,##''                                '''############,,,,        ,,,,,,###''
      ,#''                                            '''#######################'''  
     '                                                          ''''####''''         
             ,#######,   #######,   ,#######,      ##                                
            ,#'     '#,  ##    ##  ,#'     '#,    #''#        ,####,   ,####,        
            ##       ##  ##   ,#'  ##            #'  '#       #'       #'  '#        
            ##       ##  #######   ##           ,######,      #####,   #    #        
            '#,     ,#'  ##    ##  '#,     ,#' ,#      #,     #,   #   #,  ,#        
             '#######'   ##     ##  '#######'  #'      '#     '####' # '####'        



                #########################################################
                #                        -***-                          #
                #          Department of theory and spectroscopy        #
                #                                                       #
                #                      Frank Neese                      #
                #                                                       #
                #     Directorship, Architecture, Infrastructure        #
                #                    SHARK, DRIVERS                     #
                #        Core code/Algorithms in most modules           #
                #                                                       #
                #        Max Planck Institute fuer Kohlenforschung      #
                #                Kaiser Wilhelm Platz 1                 #
                #                 D-45470 Muelheim/Ruhr                 #
                #                      Germany                          #
                #                                                       #
                #                  All rights reserved                  #
                #                        -***-                          #
                #########################################################


                         Program Version 6.0.0  -   RELEASE  -


 With contributions from (in alphabetic order):
   Daniel Aravena         : Magnetic Suceptibility
   Michael Atanasov       : Ab Initio Ligand Field Theory (pilot matlab implementation)
   Alexander A. Auer      : GIAO ZORA, VPT2 properties, NMR spectrum
   Ute Becker             : All parallelization in ORCA, NUMFREQ, NUMCALC
   Giovanni Bistoni       : ED, misc. LED, open-shell LED, HFLD
   Martin Brehm           : Molecular dynamics
   Dmytro Bykov           : pre 5.0 version of the SCF Hessian
   Marcos Casanova-Páez   : Triplet and SCS-CIS(D). UHF-(DLPNO)-IP/EA/STEOM-CCSD. UHF-CVS-IP/STEOM-CCSD
   Vijay G. Chilkuri      : MRCI spin determinant printing, contributions to CSF-ICE
   Pauline Colinet        : FMM embedding
   Dipayan Datta          : RHF DLPNO-CCSD density
   Achintya Kumar Dutta   : EOM-CC, STEOM-CC
   Nicolas Foglia         : Exact transition moments, OPA infrastructure, MCD improvements
   Dmitry Ganyushin       : Spin-Orbit,Spin-Spin,Magnetic field MRCI
   Miquel Garcia          : C-PCM and meta-GGA Hessian, CCSD/C-PCM, Gaussian charge scheme
   Tiago L. C. Gouveia    : GS-ROHF, GS-ROCIS
   Yang Guo               : DLPNO-NEVPT2, F12-NEVPT2, CIM, IAO-localization
   Andreas Hansen         : Spin unrestricted coupled pair/coupled cluster methods
   Ingolf Harden          : AUTO-CI MPn and infrastructure 
   Benjamin Helmich-Paris : MC-RPA, TRAH-(SCF,CASSCF), AVAS, COSX integrals, SCF dyn. polar.
   Lee Huntington         : MR-EOM, pCC
   Robert Izsak           : Overlap fitted RIJCOSX, COSX-SCS-MP3, EOM
   Riya Kayal             : Wick's Theorem for AUTO-CI, AUTO-CI UHF-CCSDT
   Emily Kempfer          : AUTO-CI, RHF CISDT and CCSDT
   Christian Kollmar      : KDIIS, OOCD, Brueckner-CCSD(T), CCSD density, CASPT2, CASPT2-K, improved NEVPT2
   Axel Koslowski         : Symmetry handling
   Simone Kossmann        : Meta GGA functionals, TD-DFT gradient, OOMP2, (MP2 Hessian; deprecated post 5.0)
   Lucas Lang             : DCDCAS
   Marvin Lechner         : AUTO-CI (C++ implementation), FIC-MRCC
   Spencer Leger          : CASSCF response
   Dagmar Lenk            : GEPOL surface, SMD, ORCA-2-JSON
   Dimitrios Liakos       : Extrapolation schemes; Compound Job, initial MDCI parallelization
   Dimitrios Manganas     : Further ROCIS development; embedding schemes. LFT, Crystal Embedding
   Dimitrios Pantazis     : SARC Basis sets
   Anastasios Papadopoulos: AUTO-CI, single reference methods and gradients
   Taras Petrenko         : pre 6.0 DFT Hessian and TD-DFT gradient, (ASA, deprecated), ECA, 1-Electron XAS/XES, NRVS
   Peter Pinski           : DLPNO-MP2, DLPNO-MP2 Gradient
   Christoph Reimann      : Effective Core Potentials
   Marius Retegan         : Local ZFS, SOC
   Christoph Riplinger    : Optimizer, TS searches, QM/MM, DLPNO-CCSD(T), (RO)-DLPNO pert. Triples
   Michael Roemelt        : Original ROCIS implementation
   Masaaki Saitow         : Open-shell DLPNO-CCSD energy and density
   Barbara Sandhoefer     : DKH picture change effects
   Kantharuban Sivalingam : CASSCF convergence/infrastructure, NEVPT2 and variants, FIC-MRCI
   Bernardo de Souza      : ESD, SOC TD-DFT
   Georgi Stoychev        : AutoAux, RI-MP2 NMR, DLPNO-MP2 response, X2C
   Van Anh Tran           : RI-MP2 g-tensors
   Willem Van den Heuvel  : Paramagnetic NMR
   Zikuan Wang            : NOTCH, Electric field optimization 
   Frank Wennmohs         : Technical directorship and infrastructure
   Hang Xu                : AUTO-CI-Response properties 


 We gratefully acknowledge several colleagues who have allowed us to
 interface, adapt or use parts of their codes:
   Stefan Grimme, W. Hujo, H. Kruse, P. Pracht,  : VdW corrections, initial TS optimization,
                  C. Bannwarth, S. Ehlert,         DFT functionals, gCP, sTDA/sTD-DF
                  L. Wittmann, M. Mueller
   Ed Valeev, F. Pavosevic, A. Kumar             : LibInt (2-el integral package), F12 methods
   Garnet Chan, S. Sharma, J. Yang, R. Olivares  : DMRG
   Ulf Ekstrom                                   : XCFun DFT Library
   Mihaly Kallay                                 : mrcc  (arbitrary order and MRCC methods)
   Frank Weinhold                                : gennbo (NPA and NBO analysis)
   Simon Mueller                                 : openCOSMO-RS
   Christopher J. Cramer and Donald G. Truhlar   : smd solvation model
   Lars Goerigk                                  : TD-DFT with DH, B97 family of functionals
   V. Asgeirsson, H. Jonsson                     : NEB implementation
   FAccTs GmbH                                   : IRC, NEB, NEB-TS, DLPNO-Multilevel, CI-OPT
                                                   MM, QMMM, 2- and 3-layer-ONIOM, Crystal-QMMM,
                                                   LR-CPCM, SF, NACMEs, symmetry and pop. for TD-DFT,
                                                   nearIR, NL-DFT gradient (VV10), updates on ESD,
                                                   ML-optimized integration grids, MBIS, APM,
                                                   GOAT, DOCKER, SOLVATOR, interface openCOSMO-RS
   S Lehtola, MJT Oliveira, MAL Marques          : LibXC Library
   Liviu Ungur et al                             : ANISO software


 Your calculation uses the libint2 library for the computation of 2-el integrals
 For citations please refer to: http://libint.valeyev.net

 Your ORCA version has been built with support for libXC version: 6.2.2
 For citations please refer to: https://libxc.gitlab.io

 This ORCA versions uses:
   CBLAS   interface :  Fast vector & matrix operations
   LAPACKE interface :  Fast linear algebra routines
   SCALAPACK package :  Parallel linear algebra routines
   Shared memory     :  Shared parallel matrices
   BLAS/LAPACK       :  OpenBLAS 0.3.27  USE64BITINT DYNAMIC_ARCH NO_AFFINITY Zen SINGLE_THREADED
        Core in use  :  Zen
   Copyright (c) 2011-2014, The OpenBLAS Project


NOTE: MaxCore=6000 MB was set to SCF,MP2,MDCI,CIPSI,MRCI and CIS
      => If you want to overwrite this, your respective input block should be placed after the MaxCore statement
================================================================================

----- Orbital basis set information -----
Your calculation utilizes the basis: cc-pVTZ 
       H, B-Ne : Obtained from the ccRepo (grant-hill.group.shef.ac.uk/ccrepo) Feb. 2017
                 T. H. Dunning, Jr., J. Chem. Phys. 90, 1007 (1989)
            He : Obtained from the ccRepo (grant-hill.group.shef.ac.uk/ccrepo) Feb. 2017
                 D. E. Woon, T. H. Dunning, Jr., J. Chem. Phys. 100, 2975 (1994)
  Li-Be, Na-Mg : Obtained from the ccRepo (grant-hill.group.shef.ac.uk/ccrepo) Feb. 2017
                 B. P. Prascher, D. E. Woon, K. A. Peterson, T. H. Dunning, Jr., A. K. Wilson, Theor. Chem. Acc. 128, 69 (2011)
         Al-Ar : Obtained from the ccRepo (grant-hill.group.shef.ac.uk/ccrepo) Feb. 2017
                 D. E. Woon, T. H. Dunning, Jr., J. Chem. Phys. 98, 1358 (1993)
            Ca : Obtained from the Peterson Research Group Website (tyr0.chem.wsu.edu/~kipeters) Feb. 2017
                 J. Koput, K. A. Peterson, J. Phys. Chem. 106, 9595 (2002)
         Sc-Zn : Obtained from the ccRepo (grant-hill.group.shef.ac.uk/ccrepo) Feb. 2017
                 N. B. Balabanov, K. A. Peterson, J. Chem. Phys. 123, 064107 (2005)
                 N. B. Balabanov, K. A. Peterson, J. Chem. Phys. 125, 074110 (2006)
         Ga-Kr : Obtained from the ccRepo (grant-hill.group.shef.ac.uk/ccrepo) Feb. 2017
                 A. K. Wilson, D. E. Woon, K. A. Peterson, T. H. Dunning, Jr., J. Chem. Phys. 110, 7667 (1999)
             Y : Obtained from the ccRepo (grant-hill.group.shef.ac.uk/ccrepo) Feb. 2017
                 K. A. Peterson, D. Figgen, M. Dolg, H. Stoll, J. Chem. Phys. 126, 124101 (2007)
        Ag, Au : Obtained from the Peterson Research Group Website (tyr0.chem.wsu.edu/~kipeters) Feb. 2017
                 K. A. Peterson, C. Puzzarini, Theor. Chem. Acc. 114, 283 (2005)

----- AuxJK basis set information -----
Your calculation utilizes the auxiliary basis: cc-pVTZ/JK 
  H, B-F, Al-Cl, Ga-Br : Obtained from the TURBOMOLE 7.0 basis set library

================================================================================
                                        WARNINGS
                       Please study these warnings very carefully!
================================================================================


================================================================================
                                       INPUT FILE
================================================================================
NAME = sp.inp
|  1> %maxcore  6000
|  2> %pal nprocs 8 end
|  3> ! B3LYP RIJK cc-pVTZ cc-pVTZ/JK tightSCF noautostart miniprint nopop
|  4> %method
|  5> end
|  6> * xyz   0   1
|  7> O      -1.021998000e+00   1.608318000e+00  -4.566780000e-01
|  8> H      -3.478700000e-02   1.695742000e+00  -3.760420000e-01
|  9> H      -1.326789000e+00   2.461744000e+00  -7.781630000e-01
| 10> O      -9.409400000e-02  -1.928019000e+00   4.939610000e-01
| 11> H      -5.305210000e-01  -1.352198000e+00   1.145180000e+00
| 12> H      -5.829610000e-01  -1.741144000e+00  -3.269430000e-01
| 13> O       1.621813000e+00   1.696837000e+00  -2.075700000e-01
| 14> H       1.950152000e+00   7.651540000e-01  -1.629780000e-01
| 15> H       1.966189000e+00   2.111332000e+00   5.886980000e-01
| 16> O       2.340853000e+00  -8.677180000e-01   6.047900000e-02
| 17> H       1.486938000e+00  -1.336848000e+00   2.315050000e-01
| 18> H       2.784035000e+00  -1.379201000e+00  -6.212530000e-01
| 19> O      -1.335648000e+00   1.818530000e-01   1.956564000e+00
| 20> H      -2.199557000e+00   1.948820000e-01   2.376682000e+00
| 21> H      -1.401914000e+00   7.927140000e-01   1.201738000e+00
| 22> O      -1.331460000e+00  -8.509650000e-01  -1.805075000e+00
| 23> H      -1.328990000e+00   6.249800000e-02  -1.465517000e+00
| 24> H      -2.217520000e+00  -9.971280000e-01  -2.146353000e+00
| 25>  *
| 26> 
| 27>                          ****END OF INPUT****
================================================================================

                       ****************************
                       * Single Point Calculation *
                       ****************************

---------------------------------
CARTESIAN COORDINATES (ANGSTROEM)
---------------------------------
  O     -1.021998    1.608318   -0.456678
  H     -0.034787    1.695742   -0.376042
  H     -1.326789    2.461744   -0.778163
  O     -0.094094   -1.928019    0.493961
  H     -0.530521   -1.352198    1.145180
  H     -0.582961   -1.741144   -0.326943
  O      1.621813    1.696837   -0.207570
  H      1.950152    0.765154   -0.162978
  H      1.966189    2.111332    0.588698
  O      2.340853   -0.867718    0.060479
  H      1.486938   -1.336848    0.231505
  H      2.784035   -1.379201   -0.621253
  O     -1.335648    0.181853    1.956564
  H     -2.199557    0.194882    2.376682
  H     -1.401914    0.792714    1.201738
  O     -1.331460   -0.850965   -1.805075
  H     -1.328990    0.062498   -1.465517
  H     -2.217520   -0.997128   -2.146353

----------------------------
CARTESIAN COORDINATES (A.U.)
----------------------------
  NO LB      ZA    FRAG     MASS         X           Y           Z
   0 O     8.0000    0    15.999   -1.931296    3.039281   -0.862996
   1 H     1.0000    0     1.008   -0.065738    3.204488   -0.710616
   2 H     1.0000    0     1.008   -2.507268    4.652022   -1.470515
   3 O     8.0000    0    15.999   -0.177812   -3.643428    0.933451
   4 H     1.0000    0     1.008   -1.002539   -2.555284    2.164077
   5 H     1.0000    0     1.008   -1.101637   -3.290285   -0.617833
   6 O     8.0000    0    15.999    3.064782    3.206557   -0.392250
   7 H     1.0000    0     1.008    3.685253    1.445932   -0.307984
   8 H     1.0000    0     1.008    3.715559    3.989839    1.112478
   9 O     8.0000    0    15.999    4.423571   -1.639749    0.114289
  10 H     1.0000    0     1.008    2.809906   -2.526277    0.437481
  11 H     1.0000    0     1.008    5.261064   -2.606312   -1.173998
  12 O     8.0000    0    15.999   -2.524009    0.343652    3.697370
  13 H     1.0000    0     1.008   -4.156560    0.368274    4.491278
  14 H     1.0000    0     1.008   -2.649234    1.498012    2.270956
  15 O     8.0000    0    15.999   -2.516095   -1.608091   -3.411097
  16 H     1.0000    0     1.008   -2.511427    0.118104   -2.769426
  17 H     1.0000    0     1.008   -4.190505   -1.884299   -4.056019



           ************************************************************
           *        Program running with 8 parallel MPI-processes     *
           *              working on a common directory               *
           ************************************************************
------------------------------------------------------------------------------
                   ___                                                        
                  /   \      - P O W E R E D   B Y -                         
                 /     \                                                     
                 |  |  |   _    _      __       _____    __    __             
                 |  |  |  | |  | |    /  \     |  _  \  |  |  /  |          
                  \  \/   | |  | |   /    \    | | | |  |  | /  /          
                 / \  \   | |__| |  /  /\  \   | |_| |  |  |/  /          
                |  |  |   |  __  | /  /__\  \  |    /   |      \           
                |  |  |   | |  | | |   __   |  |    \   |  |\   \          
                \     /   | |  | | |  |  |  |  | |\  \  |  | \   \       
                 \___/    |_|  |_| |__|  |__|  |_| \__\ |__|  \__/        
                                                                              
                      - O R C A' S   B I G   F R I E N D -                    
                                      &                                       
                       - I N T E G R A L  F E E D E R -                       
                                                                              
 v1 FN, 2020, v2 2021, v3 2022-2024                                           
------------------------------------------------------------------------------


----------------------
SHARK INTEGRAL PACKAGE
----------------------

Number of atoms                             ...     18
Number of basis functions                   ...    384
Number of shells                            ...    168
Maximum angular momentum                    ...      3
Integral batch strategy                     ... SHARK/LIBINT Hybrid
RI-J (if used) integral strategy            ... SPLIT-RIJ (Revised 2003 algorithm where possible)
Printlevel                                  ...      1
Contraction scheme used                     ... PARTIAL GENERAL contraction
Prescreening option                         ... SCHWARTZ
   Thresh                                   ... 2.500e-11
   Tcut                                     ... 2.500e-12
   Tpresel                                  ... 2.500e-12 
Coulomb Range Separation                    ... NOT USED
Exchange Range Separation                   ... NOT USED
Multipole approximations                    ... NOT USED
Finite Nucleus Model                        ... NOT USED
CABS basis                                  ... NOT available
Auxiliary Coulomb fitting basis             ... NOT available
Auxiliary J/K fitting basis                 ... AVAILABLE
   # of basis functions in Aux-JK           ...    834
   # of shells in Aux-JK                    ...    270
   Maximum angular momentum in Aux-JK       ...      4
Auxiliary Correlation fitting basis         ... NOT available
Auxiliary 'external' fitting basis          ... NOT available

Checking pre-screening integrals            ... done (  0.0 sec) Dimension = 168
Save PGC pre-screening integrals            ... done (  0.0 sec) Dimension = 168
Calculate PGC overlap integrals             ... done (  0.0 sec) Dimension = 132
Calculating pre-screening integrals (ORCA)  ... done (  0.1 sec) Dimension = 132
Check shell pair data                       ... done (  0.0 sec)
Shell pair information
Shell pair cut-off parameter TPreSel        ...   2.5e-12
Total number of shell pairs                 ...     14196
Shell pairs after pre-screening             ...     10025
Total number of primitive shell pairs       ...     20964
Primitive shell pairs kept                  ...     12988
          la=0 lb=0:   3044 shell pairs
          la=1 lb=0:   3018 shell pairs
          la=1 lb=1:    774 shell pairs
          la=2 lb=0:   1455 shell pairs
          la=2 lb=1:    824 shell pairs
          la=2 lb=2:    240 shell pairs
          la=3 lb=0:    334 shell pairs
          la=3 lb=1:    213 shell pairs
          la=3 lb=2:    110 shell pairs
          la=3 lb=3:     13 shell pairs

Calculating one electron integrals          ... done (  0.0 sec)
Calculating RI/JK V-Matrix + Cholesky decomp... done (  0.1 sec)
Calculating Nuclear repulsion               ... done (  0.0 sec) ENN=    293.564711495199 Eh

Diagonalization of the overlap matrix:
Smallest eigenvalue                        ... 1.486e-03
Time for diagonalization                   ...    0.011 sec
Threshold for overlap eigenvalues          ... 1.000e-07
Number of eigenvalues below threshold      ... 0
Time for construction of square roots      ...    0.016 sec
Total time needed                          ...    0.038 sec

-------------------
DFT GRID GENERATION
-------------------

General Integration Accuracy     IntAcc      ... 4.388
Radial Grid Type                 RadialGrid  ... OptM3 with GC (2021)
Angular Grid (max. ang.)         AngularGrid ... 4 (Lebedev-302)
Angular grid pruning method      GridPruning ... 4 (adaptive)
Weight generation scheme         WeightScheme... mBecke (2022)
Basis function cutoff            BFCut       ... 1.0000e-11
Integration weight cutoff        WCut        ... 1.0000e-14
Partially contracted basis set               ... off
Rotationally invariant grid construction     ... off
Angular grids for H and He will be reduced by one unit

Total number of grid points                  ...    75550
Total number of batches                      ...     1190
Average number of points per batch           ...       63
Average number of grid points per atom       ...     4197

---------------------
SHARK GRID GENERATION
---------------------

General Integration Accuracy     IntAcc      ... 4.388
Radial Grid Type                 RadialGrid  ... OptM3 with GC (2021)
Angular Grid (max. ang.)         AngularGrid ... 4 (Lebedev-302)
Angular grid pruning method      GridPruning ... 4 (adaptive)
Weight generation scheme         WeightScheme... mBecke (2022)
Basis function cutoff            BFCut       ... 1.0000e-11
Integration weight cutoff        WCut        ... 1.0000e-14
Partially contracted basis set               ... off
Rotationally invariant grid construction     ... off
Angular grids for H and He will be reduced by one unit
Steep s-basis detected: some atoms will have their radial
                        grid points doubled.

Total number of grid points                  ...   112616
Total number of batches                      ...     1769
Average number of points per batch           ...       63
Average number of grid points per atom       ...     6256
Initializing property integral containers    ... done (  0.0 sec)

SHARK setup successfully completed in   2.1 seconds

Maximum memory used throughout the entire STARTUP-calculation: 36.1 MB


           ************************************************************
           *        Program running with 8 parallel MPI-processes     *
           *              working on a common directory               *
           ************************************************************
Loading Hartree-Fock densities                     ... done
Calculating cut-offs                               ... done
Initializing the effective Hamiltonian             ... done
Setting up the integral package (SHARK)            ... done
Starting the Coulomb interaction                   ... done (   0.0 sec)
Making the grid                                    ... done (   0.1 sec)
Mapping shells                                     ... done
Starting the XC term evaluation                    ... done (   0.0 sec)
  promolecular density results
     # of electrons  =     59.994060296
     EX              =    -52.742653570
     EC              =     -2.055743003
     EX+EC           =    -54.798396573
Transforming the Hamiltonian                       ... done (   0.0 sec)
Diagonalizing the Hamiltonian                      ... done (   0.0 sec)
Back transforming the eigenvectors                 ... done (   0.0 sec)
Now organizing SCF variables                       ... done
             **** ENERGY FILE WAS UPDATED (sp.en.tmp) ****
Finished Guess after   0.5 sec
Maximum memory used throughout the entire GUESS-calculation: 19.4 MB


           ************************************************************
           *        Program running with 8 parallel MPI-processes     *
           *              working on a common directory               *
           ************************************************************
----------------------------------------D-I-I-S--------------------------------------------
Iteration    Energy (Eh)           Delta-E    RMSDP     MaxDP     DIISErr   Damp  Time(sec)
-------------------------------------------------------------------------------------------
    1    -458.1042368874332169     0.00e+00  1.64e-03  6.44e-02  3.54e-01  0.700   0.7
    2    -458.1043771877956488    -1.40e-04  1.21e-03  4.42e-02  1.80e-01  0.700   0.7
                               ***Turning on AO-DIIS***
    3    -458.2726535135333279    -1.68e-01  3.48e-04  1.06e-02  3.70e-02  0.700   0.7
    4    -458.4578810591813181    -1.85e-01  3.07e-04  1.19e-02  1.58e-02  0.000   0.7
    5    -458.6195814982353340    -1.62e-01  2.18e-04  6.98e-03  2.12e-02  0.000   0.7
    6    -458.6214114762075269    -1.83e-03  8.60e-05  2.70e-03  1.01e-02  0.000   0.7
    7    -458.6217363203434161    -3.25e-04  3.92e-05  1.44e-03  5.52e-03  0.000   0.7
                              *** Initializing SOSCF ***
---------------------------------------S-O-S-C-F--------------------------------------
Iteration    Energy (Eh)           Delta-E    RMSDP     MaxDP     MaxGrad    Time(sec)
--------------------------------------------------------------------------------------
    8    -458.6218053623424566    -6.90e-05  2.13e-05  1.00e-03  2.58e-03     0.8
    9    -458.6218235957547904    -1.82e-05  1.38e-05  5.67e-04  1.29e-04     0.6
   10    -458.6218232322135009     3.64e-07  4.76e-06  2.45e-04  1.82e-04     0.7
   11    -458.6218246483475696    -1.42e-06  6.73e-07  1.72e-05  6.59e-06     0.7
   12    -458.6218246470463100     1.30e-09  2.85e-07  7.79e-06  8.27e-06     0.6
                 **** Energy Check signals convergence ****

               *****************************************************
               *                     SUCCESS                       *
               *           SCF CONVERGED AFTER  12 CYCLES          *
               *****************************************************

             **** ENERGY FILE WAS UPDATED (sp.en.tmp) ****

----------------
TOTAL SCF ENERGY
----------------

Total Energy       :       -458.62182464704631 Eh          -12479.73431 eV

Components:
Nuclear Repulsion  :        293.56471149519928 Eh            7988.30192 eV
Electronic Energy  :       -752.18653614224559 Eh          -20468.03622 eV
One Electron Energy:      -1215.91971627084331 Eh          -33086.85758 eV
Two Electron Energy:        463.73318012859772 Eh           12618.82136 eV

Virial components:
Potential Energy   :       -914.92052231389721 Eh          -24896.25311 eV
Kinetic Energy     :        456.29869766685096 Eh           12416.51881 eV
Virial Ratio       :          2.00509124175036

DFT components:
N(Alpha)           :       29.999965706881 electrons
N(Beta)            :       29.999965706881 electrons
N(Total)           :       59.999931413762 electrons
E(X)               :      -42.719692120564 Eh       
E(C)               :       -2.444666634929 Eh       
E(XC)              :      -45.164358755493 Eh       

---------------
SCF CONVERGENCE
---------------

  Last Energy change         ...   -1.3013e-09  Tolerance :   1.0000e-08
  Last MAX-Density change    ...    7.7866e-06  Tolerance :   1.0000e-07
  Last RMS-Density change    ...    2.8538e-07  Tolerance :   5.0000e-09
  Last DIIS Error            ...    2.5835e-03  Tolerance :   5.0000e-07
  Last Orbital Gradient      ...    8.2729e-06  Tolerance :   1.0000e-05
  Last Orbital Rotation      ...    5.7431e-06  Tolerance :   1.0000e-05


----------------
ORBITAL ENERGIES
----------------

  NO   OCC          E(Eh)            E(eV) 
   0   2.0000     -19.138809      -520.7935 
   1   2.0000     -19.119771      -520.2754 
   2   2.0000     -19.119466      -520.2671 
   3   2.0000     -19.118964      -520.2535 
   4   2.0000     -19.106888      -519.9249 
   5   2.0000     -19.094494      -519.5876 
   6   2.0000      -1.026862       -27.9423 
   7   2.0000      -1.006494       -27.3881 
   8   2.0000      -1.004538       -27.3349 
   9   2.0000      -1.003728       -27.3128 
  10   2.0000      -0.989780       -26.9333 
  11   2.0000      -0.974370       -26.5140 
  12   2.0000      -0.549184       -14.9441 
  13   2.0000      -0.527910       -14.3652 
  14   2.0000      -0.527620       -14.3573 
  15   2.0000      -0.525055       -14.2875 
  16   2.0000      -0.512274       -13.9397 
  17   2.0000      -0.498069       -13.5531 
  18   2.0000      -0.432633       -11.7725 
  19   2.0000      -0.412585       -11.2270 
  20   2.0000      -0.388239       -10.5645 
  21   2.0000      -0.385732       -10.4963 
  22   2.0000      -0.375235       -10.2107 
  23   2.0000      -0.351241        -9.5578 
  24   2.0000      -0.332650        -9.0519 
  25   2.0000      -0.313831        -8.5398 
  26   2.0000      -0.309553        -8.4234 
  27   2.0000      -0.308184        -8.3861 
  28   2.0000      -0.302972        -8.2443 
  29   2.0000      -0.288279        -7.8445 
  30   0.0000       0.006100         0.1660 
  31   0.0000       0.046683         1.2703 
  32   0.0000       0.050384         1.3710 
  33   0.0000       0.051790         1.4093 
  34   0.0000       0.074114         2.0167 
  35   0.0000       0.138402         3.7661 
  36   0.0000       0.169269         4.6060 
  37   0.0000       0.181007         4.9254 
  38   0.0000       0.197532         5.3751 
  39   0.0000       0.216902         5.9022 
  40   0.0000       0.234365         6.3774 
*Only the first 10 virtual orbitals were printed.
Total SCF time: 0 days 0 hours 0 min 8 sec 
Finished LeanSCF after   8.7 sec

Maximum memory used throughout the entire LEANSCF-calculation: 41.6 MB

-------------------------   --------------------
FINAL SINGLE POINT ENERGY      -458.621824647046
-------------------------   --------------------



           ************************************************************
           *        Program running with 8 parallel MPI-processes     *
           *              working on a common directory               *
           ************************************************************

------------------------------------------------------------------------------
                              ORCA PROPERTY CALCULATIONS
------------------------------------------------------------------------------

GBWName                                 ... sp.gbw
Number of atoms                         ...     18
Number of basis functions               ...    384
Max core memory                         ...   6000 MB

Electric properties:
Dipole moment                           ... YES
Quadrupole moment                       ...  NO
Static polarizability (Dipole/Dipole)   ...  NO
Static polarizability (Dipole/Quad.)    ...  NO
Static polarizability (Quad./Quad.)     ...  NO
Static polarizability (Velocity)        ...  NO

Atomic electric properties:
Dipole moment                           ...  NO
Quadrupole moment                       ...  NO
Static polarizability                   ...  NO

Choice of electric origin               ... Center of mass
Position of electric origin             ...     0.024897    -0.022154     0.005782

General magnetic properties:
Magnetizability                         ...  NO

EPR properties:
g-Tensor (aka g-matrix)                 ...  NO
Zero-Field splitting spin-orbit         ...  NO
Zero-field splitting spin-spin          ...  NO
Hyperfine couplings                     ...  NO (   0 nuclei)
Quadrupole couplings                    ...  NO (   0 nuclei)
Contact density                         ...  NO (   0 nuclei)

NMR properties:
Chemical shifts                         ...  NO (   0 nuclei)
Spin-rotation constants                 ...  NO (   0 nuclei)
Spin-spin couplings                     ...  NO (   0 nuclei,    0 pairs)

Choice of magnetic origin               ... GIAO
Position of magnetic origin             ...     0.000000     0.000000     0.000000

Properties with geometric perturbations:
SCF Hessian                             ...  NO
IR spectrum                             ...  NO
VCD spectrum                            ...  NO
X-ray spectroscopy properties:
SCF XES/XAS/RIXS spectra                ...  NO


-------------
DIPOLE MOMENT
-------------

Method             : SCF
Type of density    : Electron Density
Multiplicity       :   1
Irrep              :   0
Energy             :  -458.6218246470463100 Eh
Relativity type    : 
Basis              : AO
                                X                 Y                 Z
Electronic contribution:      0.398063862      -0.202185601       0.060927882
Nuclear contribution   :     -1.493801843       1.329225834      -0.346934572
                        -----------------------------------------
Total Dipole Moment    :     -1.095737982       1.127040232      -0.286006690
                        -----------------------------------------
Magnitude (a.u.)       :      1.597704990
Magnitude (Debye)      :      4.061043349



--------------------
Rotational spectrum 
--------------------
 
Rotational constants in cm-1:             0.050511             0.044886             0.038954 
Rotational constants in MHz :          1514.276533          1345.634164          1167.819844 

Dipole components along the rotational axes: 
x,y,z [a.u.] :    -1.063326     1.165316    -0.253057 
x,y,z [Debye]:    -2.702760     2.961998    -0.643219 

 

Dipole moment calculation done in   0.0 sec 

Maximum memory used throughout the entire PROP-calculation: 17.4 MB

--------------------------------
SUGGESTED CITATIONS FOR THIS RUN
--------------------------------

Below you find a list of papers that are relevant to this ORCA run
We neither can nor want to force you to cite these papers, but we appreciate if you do
You receive ORCA, which is the product of decades of hard work by many enthusiastic individuals, for free
The only thing we kindly ask in return is that you cite our papers,
We deeply appreciate it, if you show your appreciation for ORCA by not just citing the generic ORCA reference.

Please note that relegating all ORCA citations to the supporting information does *not* help us.
SI sections are not indexed - citations you put there will not count into any citation statistics
But we need these citations in order to attract the funding resources that allow us to do what we are doing

Therefore, if you are a happy ORCA user, please consider citing a few of the papers listed below in the main body of your paper

In addition to the list printed below, the program has created the file sp.bibtex that contains the list in bibtex format
You can import this file easily into all common literature databanks and citation aid programs


List of essential papers. We consider these as the minimum necessary citations

  1. Neese,F.
     Software update: the ORCA program system, version 5.0
     WIRES Comput. Molec. Sci., 2022 12(1)e1606
     doi.org/10.1002/wcms.1606

List of papers to cite with high priority. The work reported in these papers was absolutely
necessary for this run to complete.
Our perspective: the developers of density functionals and basis sets usually get cited in chemistry papers
Good! But without the algorithms to do something with them, the functionals or basis sets would not do anything.
Hence, in our opinion, the algorithm design and method developments papers are equally worthy of getting cited

  1. Neese,F.
     An improvement of the resolution of the identity approximation for the formation of the Coulomb matrix
     J. Comp. Chem., 2003 24(14)1740-1747
     doi.org/10.1002/jcc.10318
  2. Kossmann,S.; Neese,F.
     Comparison of two efficient approximate Hartee-Fock approaches
     Chem. Phys. Lett., 2009 481 240-243
     doi.org/10.1016/j.cplett.2009.09.073
  3. Neese,F.
     The SHARK Integral Generation and Digestion System
     J. Comp. Chem., 2022  1-16
     doi.org/10.1002/jcc.26942

List of suggested additional citations. These are papers that are important in the 'surrounding' of 
of this run, or papers that preceded the highly important papers. If you like your results we are grateful for a citation.

  1. Neese,F.
     The ORCA program system
     WIRES Comput. Molec. Sci., 2012 2(1)73-78
     doi.org/10.1002/wcms.81
  2. Neese,F.
     Software update: the ORCA program system, version 4.0
     WIRES Comput. Molec. Sci., 2018 8(1)1-6
     doi.org/10.1002/wcms.1327
  3. Neese,F.; Wennmohs,F.; Becker,U.; Riplinger,C.
     The ORCA quantum chemistry program package
     J. Chem. Phys., 2020 152 Art. No. L224108
     doi.org/10.1063/5.0004608

List of optional additional citations

  1. Neese,F.
     Approximate second-order SCF convergence for spin unrestricted wavefunctions
     Chem. Phys. Lett., 2000 325(1-3)93-98
     doi.org/10.1016/s0009-2614(00)00662-x

Timings for individual modules:

Sum of individual times          ...       11.991 sec (=   0.200 min)
Startup calculation              ...        2.385 sec (=   0.040 min)  19.9 %
SCF iterations                   ...        9.400 sec (=   0.157 min)  78.4 %
Property calculations            ...        0.206 sec (=   0.003 min)   1.7 %
                             ****ORCA TERMINATED NORMALLY****
TOTAL RUN TIME: 0 days 0 hours 0 minutes 13 seconds 434 msec
