
                                 *****************
                                 * O   R   C   A *
                                 *****************

                                            #,                                       
                                            ###                                      
                                            ####                                     
                                            #####                                    
                                            ######                                   
                                           ########,                                 
                                     ,,################,,,,,                         
                               ,,#################################,,                 
                          ,,##########################################,,             
                       ,#########################################, ''#####,          
                    ,#############################################,,   '####,        
                  ,##################################################,,,,####,       
                ,###########''''           ''''###############################       
              ,#####''   ,,,,##########,,,,          '''####'''          '####       
            ,##' ,,,,###########################,,,                        '##       
           ' ,,###''''                  '''############,,,                           
         ,,##''                                '''############,,,,        ,,,,,,###''
      ,#''                                            '''#######################'''  
     '                                                          ''''####''''         
             ,#######,   #######,   ,#######,      ##                                
            ,#'     '#,  ##    ##  ,#'     '#,    #''#        ,####,   ,####,        
            ##       ##  ##   ,#'  ##            #'  '#       #'       #'  '#        
            ##       ##  #######   ##           ,######,      #####,   #    #        
            '#,     ,#'  ##    ##  '#,     ,#' ,#      #,     #,   #   #,  ,#        
             '#######'   ##     ##  '#######'  #'      '#     '####' # '####'        



                #########################################################
                #                        -***-                          #
                #          Department of theory and spectroscopy        #
                #                                                       #
                #                      Frank Neese                      #
                #                                                       #
                #     Directorship, Architecture, Infrastructure        #
                #                    SHARK, DRIVERS                     #
                #        Core code/Algorithms in most modules           #
                #                                                       #
                #        Max Planck Institute fuer Kohlenforschung      #
                #                Kaiser Wilhelm Platz 1                 #
                #                 D-45470 Muelheim/Ruhr                 #
                #                      Germany                          #
                #                                                       #
                #                  All rights reserved                  #
                #                        -***-                          #
                #########################################################


                         Program Version 6.0.0  -   RELEASE  -


 With contributions from (in alphabetic order):
   Daniel Aravena         : Magnetic Suceptibility
   Michael Atanasov       : Ab Initio Ligand Field Theory (pilot matlab implementation)
   Alexander A. Auer      : GIAO ZORA, VPT2 properties, NMR spectrum
   Ute Becker             : All parallelization in ORCA, NUMFREQ, NUMCALC
   Giovanni Bistoni       : ED, misc. LED, open-shell LED, HFLD
   Martin Brehm           : Molecular dynamics
   Dmytro Bykov           : pre 5.0 version of the SCF Hessian
   Marcos Casanova-Páez   : Triplet and SCS-CIS(D). UHF-(DLPNO)-IP/EA/STEOM-CCSD. UHF-CVS-IP/STEOM-CCSD
   Vijay G. Chilkuri      : MRCI spin determinant printing, contributions to CSF-ICE
   Pauline Colinet        : FMM embedding
   Dipayan Datta          : RHF DLPNO-CCSD density
   Achintya Kumar Dutta   : EOM-CC, STEOM-CC
   Nicolas Foglia         : Exact transition moments, OPA infrastructure, MCD improvements
   Dmitry Ganyushin       : Spin-Orbit,Spin-Spin,Magnetic field MRCI
   Miquel Garcia          : C-PCM and meta-GGA Hessian, CCSD/C-PCM, Gaussian charge scheme
   Tiago L. C. Gouveia    : GS-ROHF, GS-ROCIS
   Yang Guo               : DLPNO-NEVPT2, F12-NEVPT2, CIM, IAO-localization
   Andreas Hansen         : Spin unrestricted coupled pair/coupled cluster methods
   Ingolf Harden          : AUTO-CI MPn and infrastructure 
   Benjamin Helmich-Paris : MC-RPA, TRAH-(SCF,CASSCF), AVAS, COSX integrals, SCF dyn. polar.
   Lee Huntington         : MR-EOM, pCC
   Robert Izsak           : Overlap fitted RIJCOSX, COSX-SCS-MP3, EOM
   Riya Kayal             : Wick's Theorem for AUTO-CI, AUTO-CI UHF-CCSDT
   Emily Kempfer          : AUTO-CI, RHF CISDT and CCSDT
   Christian Kollmar      : KDIIS, OOCD, Brueckner-CCSD(T), CCSD density, CASPT2, CASPT2-K, improved NEVPT2
   Axel Koslowski         : Symmetry handling
   Simone Kossmann        : Meta GGA functionals, TD-DFT gradient, OOMP2, (MP2 Hessian; deprecated post 5.0)
   Lucas Lang             : DCDCAS
   Marvin Lechner         : AUTO-CI (C++ implementation), FIC-MRCC
   Spencer Leger          : CASSCF response
   Dagmar Lenk            : GEPOL surface, SMD, ORCA-2-JSON
   Dimitrios Liakos       : Extrapolation schemes; Compound Job, initial MDCI parallelization
   Dimitrios Manganas     : Further ROCIS development; embedding schemes. LFT, Crystal Embedding
   Dimitrios Pantazis     : SARC Basis sets
   Anastasios Papadopoulos: AUTO-CI, single reference methods and gradients
   Taras Petrenko         : pre 6.0 DFT Hessian and TD-DFT gradient, (ASA, deprecated), ECA, 1-Electron XAS/XES, NRVS
   Peter Pinski           : DLPNO-MP2, DLPNO-MP2 Gradient
   Christoph Reimann      : Effective Core Potentials
   Marius Retegan         : Local ZFS, SOC
   Christoph Riplinger    : Optimizer, TS searches, QM/MM, DLPNO-CCSD(T), (RO)-DLPNO pert. Triples
   Michael Roemelt        : Original ROCIS implementation
   Masaaki Saitow         : Open-shell DLPNO-CCSD energy and density
   Barbara Sandhoefer     : DKH picture change effects
   Kantharuban Sivalingam : CASSCF convergence/infrastructure, NEVPT2 and variants, FIC-MRCI
   Bernardo de Souza      : ESD, SOC TD-DFT
   Georgi Stoychev        : AutoAux, RI-MP2 NMR, DLPNO-MP2 response, X2C
   Van Anh Tran           : RI-MP2 g-tensors
   Willem Van den Heuvel  : Paramagnetic NMR
   Zikuan Wang            : NOTCH, Electric field optimization 
   Frank Wennmohs         : Technical directorship and infrastructure
   Hang Xu                : AUTO-CI-Response properties 


 We gratefully acknowledge several colleagues who have allowed us to
 interface, adapt or use parts of their codes:
   Stefan Grimme, W. Hujo, H. Kruse, P. Pracht,  : VdW corrections, initial TS optimization,
                  C. Bannwarth, S. Ehlert,         DFT functionals, gCP, sTDA/sTD-DF
                  L. Wittmann, M. Mueller
   Ed Valeev, F. Pavosevic, A. Kumar             : LibInt (2-el integral package), F12 methods
   Garnet Chan, S. Sharma, J. Yang, R. Olivares  : DMRG
   Ulf Ekstrom                                   : XCFun DFT Library
   Mihaly Kallay                                 : mrcc  (arbitrary order and MRCC methods)
   Frank Weinhold                                : gennbo (NPA and NBO analysis)
   Simon Mueller                                 : openCOSMO-RS
   Christopher J. Cramer and Donald G. Truhlar   : smd solvation model
   Lars Goerigk                                  : TD-DFT with DH, B97 family of functionals
   V. Asgeirsson, H. Jonsson                     : NEB implementation
   FAccTs GmbH                                   : IRC, NEB, NEB-TS, DLPNO-Multilevel, CI-OPT
                                                   MM, QMMM, 2- and 3-layer-ONIOM, Crystal-QMMM,
                                                   LR-CPCM, SF, NACMEs, symmetry and pop. for TD-DFT,
                                                   nearIR, NL-DFT gradient (VV10), updates on ESD,
                                                   ML-optimized integration grids, MBIS, APM,
                                                   GOAT, DOCKER, SOLVATOR, interface openCOSMO-RS
   S Lehtola, MJT Oliveira, MAL Marques          : LibXC Library
   Liviu Ungur et al                             : ANISO software


 Your calculation uses the libint2 library for the computation of 2-el integrals
 For citations please refer to: http://libint.valeyev.net

 Your ORCA version has been built with support for libXC version: 6.2.2
 For citations please refer to: https://libxc.gitlab.io

 This ORCA versions uses:
   CBLAS   interface :  Fast vector & matrix operations
   LAPACKE interface :  Fast linear algebra routines
   SCALAPACK package :  Parallel linear algebra routines
   Shared memory     :  Shared parallel matrices
   BLAS/LAPACK       :  OpenBLAS 0.3.27  USE64BITINT DYNAMIC_ARCH NO_AFFINITY Haswell SINGLE_THREADED
        Core in use  :  Haswell
   Copyright (c) 2011-2014, The OpenBLAS Project


NOTE: MaxCore=6000 MB was set to SCF,MP2,MDCI,CIPSI,MRCI and CIS
      => If you want to overwrite this, your respective input block should be placed after the MaxCore statement
================================================================================

----- Orbital basis set information -----
Your calculation utilizes the basis: cc-pVTZ 
       H, B-Ne : Obtained from the ccRepo (grant-hill.group.shef.ac.uk/ccrepo) Feb. 2017
                 T. H. Dunning, Jr., J. Chem. Phys. 90, 1007 (1989)
            He : Obtained from the ccRepo (grant-hill.group.shef.ac.uk/ccrepo) Feb. 2017
                 D. E. Woon, T. H. Dunning, Jr., J. Chem. Phys. 100, 2975 (1994)
  Li-Be, Na-Mg : Obtained from the ccRepo (grant-hill.group.shef.ac.uk/ccrepo) Feb. 2017
                 B. P. Prascher, D. E. Woon, K. A. Peterson, T. H. Dunning, Jr., A. K. Wilson, Theor. Chem. Acc. 128, 69 (2011)
         Al-Ar : Obtained from the ccRepo (grant-hill.group.shef.ac.uk/ccrepo) Feb. 2017
                 D. E. Woon, T. H. Dunning, Jr., J. Chem. Phys. 98, 1358 (1993)
            Ca : Obtained from the Peterson Research Group Website (tyr0.chem.wsu.edu/~kipeters) Feb. 2017
                 J. Koput, K. A. Peterson, J. Phys. Chem. 106, 9595 (2002)
         Sc-Zn : Obtained from the ccRepo (grant-hill.group.shef.ac.uk/ccrepo) Feb. 2017
                 N. B. Balabanov, K. A. Peterson, J. Chem. Phys. 123, 064107 (2005)
                 N. B. Balabanov, K. A. Peterson, J. Chem. Phys. 125, 074110 (2006)
         Ga-Kr : Obtained from the ccRepo (grant-hill.group.shef.ac.uk/ccrepo) Feb. 2017
                 A. K. Wilson, D. E. Woon, K. A. Peterson, T. H. Dunning, Jr., J. Chem. Phys. 110, 7667 (1999)
             Y : Obtained from the ccRepo (grant-hill.group.shef.ac.uk/ccrepo) Feb. 2017
                 K. A. Peterson, D. Figgen, M. Dolg, H. Stoll, J. Chem. Phys. 126, 124101 (2007)
        Ag, Au : Obtained from the Peterson Research Group Website (tyr0.chem.wsu.edu/~kipeters) Feb. 2017
                 K. A. Peterson, C. Puzzarini, Theor. Chem. Acc. 114, 283 (2005)

----- AuxC basis set information -----
Your calculation utilizes the auxiliary basis: cc-pVTZ/C 
  Obtained from the EMSL Basis Set Exchange (bse.pnl.gov) Feb. 2017
  H-He, B-F, Al-Ar, Ga-Kr : F. Weigend, A. Kohn, C. Hattig, J. Chem. Phys. 116, 3175 (2002)
             Li-Be, Na-Mg : C. Haettig, Phys. Chem. Chem. Phys. 7, 59 (2005)
                       Ne : C. Haettig, Phys. Chem. Chem. Phys. 7, 59 (2005)
                            F. Weigend, A. Kohn, C. Hattig, J. Chem. Phys. 116, 3175 (2002)
                    Sc-Zn : J. G. Hill, J. A. Platts, J. Chem. Phys. 128, 044104 (2008)

----- AuxJK basis set information -----
Your calculation utilizes the auxiliary basis: cc-pVTZ/JK 
  H, B-F, Al-Cl, Ga-Br : Obtained from the TURBOMOLE 7.0 basis set library

================================================================================
                                        WARNINGS
                       Please study these warnings very carefully!
================================================================================


WARNING: Post HF methods need fully converged wavefunctions
  ===> : Setting SCFConvForced true
         You can overwrite this default with %scf ConvForced false 


WARNING: MDCI localization with Augmented Hessian Foster-Boys
  ===> : Switching off randomization!

================================================================================
                                       INPUT FILE
================================================================================
NAME = sp.inp
|  1> %maxcore  6000
|  2> %pal nprocs 8 end
|  3> ! DLPNO-CCSD(T) normalPNO RIJK cc-pVTZ cc-pVTZ/JK cc-pVTZ/C tightSCF noautostart miniprint nopop
|  4> %method
|  5> end
|  6> * xyz   0   1
|  7> O      -1.021998000e+00   1.608318000e+00  -4.566780000e-01
|  8> H      -3.478700000e-02   1.695742000e+00  -3.760420000e-01
|  9> H      -1.326789000e+00   2.461744000e+00  -7.781630000e-01
| 10> O      -9.409400000e-02  -1.928019000e+00   4.939610000e-01
| 11> H      -5.305210000e-01  -1.352198000e+00   1.145180000e+00
| 12> H      -5.829610000e-01  -1.741144000e+00  -3.269430000e-01
| 13> O       1.621813000e+00   1.696837000e+00  -2.075700000e-01
| 14> H       1.950152000e+00   7.651540000e-01  -1.629780000e-01
| 15> H       1.966189000e+00   2.111332000e+00   5.886980000e-01
| 16> O       2.340853000e+00  -8.677180000e-01   6.047900000e-02
| 17> H       1.486938000e+00  -1.336848000e+00   2.315050000e-01
| 18> H       2.784035000e+00  -1.379201000e+00  -6.212530000e-01
| 19> O      -1.335648000e+00   1.818530000e-01   1.956564000e+00
| 20> H      -2.199557000e+00   1.948820000e-01   2.376682000e+00
| 21> H      -1.401914000e+00   7.927140000e-01   1.201738000e+00
| 22> O      -1.331460000e+00  -8.509650000e-01  -1.805075000e+00
| 23> H      -1.328990000e+00   6.249800000e-02  -1.465517000e+00
| 24> H      -2.217520000e+00  -9.971280000e-01  -2.146353000e+00
| 25>  *
| 26> 
| 27>                          ****END OF INPUT****
================================================================================

                       ****************************
                       * Single Point Calculation *
                       ****************************

---------------------------------
CARTESIAN COORDINATES (ANGSTROEM)
---------------------------------
  O     -1.021998    1.608318   -0.456678
  H     -0.034787    1.695742   -0.376042
  H     -1.326789    2.461744   -0.778163
  O     -0.094094   -1.928019    0.493961
  H     -0.530521   -1.352198    1.145180
  H     -0.582961   -1.741144   -0.326943
  O      1.621813    1.696837   -0.207570
  H      1.950152    0.765154   -0.162978
  H      1.966189    2.111332    0.588698
  O      2.340853   -0.867718    0.060479
  H      1.486938   -1.336848    0.231505
  H      2.784035   -1.379201   -0.621253
  O     -1.335648    0.181853    1.956564
  H     -2.199557    0.194882    2.376682
  H     -1.401914    0.792714    1.201738
  O     -1.331460   -0.850965   -1.805075
  H     -1.328990    0.062498   -1.465517
  H     -2.217520   -0.997128   -2.146353

----------------------------
CARTESIAN COORDINATES (A.U.)
----------------------------
  NO LB      ZA    FRAG     MASS         X           Y           Z
   0 O     8.0000    0    15.999   -1.931296    3.039281   -0.862996
   1 H     1.0000    0     1.008   -0.065738    3.204488   -0.710616
   2 H     1.0000    0     1.008   -2.507268    4.652022   -1.470515
   3 O     8.0000    0    15.999   -0.177812   -3.643428    0.933451
   4 H     1.0000    0     1.008   -1.002539   -2.555284    2.164077
   5 H     1.0000    0     1.008   -1.101637   -3.290285   -0.617833
   6 O     8.0000    0    15.999    3.064782    3.206557   -0.392250
   7 H     1.0000    0     1.008    3.685253    1.445932   -0.307984
   8 H     1.0000    0     1.008    3.715559    3.989839    1.112478
   9 O     8.0000    0    15.999    4.423571   -1.639749    0.114289
  10 H     1.0000    0     1.008    2.809906   -2.526277    0.437481
  11 H     1.0000    0     1.008    5.261064   -2.606312   -1.173998
  12 O     8.0000    0    15.999   -2.524009    0.343652    3.697370
  13 H     1.0000    0     1.008   -4.156560    0.368274    4.491278
  14 H     1.0000    0     1.008   -2.649234    1.498012    2.270956
  15 O     8.0000    0    15.999   -2.516095   -1.608091   -3.411097
  16 H     1.0000    0     1.008   -2.511427    0.118104   -2.769426
  17 H     1.0000    0     1.008   -4.190505   -1.884299   -4.056019



           ************************************************************
           *        Program running with 8 parallel MPI-processes     *
           *              working on a common directory               *
           ************************************************************
------------------------------------------------------------------------------
                   ___                                                        
                  /   \      - P O W E R E D   B Y -                         
                 /     \                                                     
                 |  |  |   _    _      __       _____    __    __             
                 |  |  |  | |  | |    /  \     |  _  \  |  |  /  |          
                  \  \/   | |  | |   /    \    | | | |  |  | /  /          
                 / \  \   | |__| |  /  /\  \   | |_| |  |  |/  /          
                |  |  |   |  __  | /  /__\  \  |    /   |      \           
                |  |  |   | |  | | |   __   |  |    \   |  |\   \          
                \     /   | |  | | |  |  |  |  | |\  \  |  | \   \       
                 \___/    |_|  |_| |__|  |__|  |_| \__\ |__|  \__/        
                                                                              
                      - O R C A' S   B I G   F R I E N D -                    
                                      &                                       
                       - I N T E G R A L  F E E D E R -                       
                                                                              
 v1 FN, 2020, v2 2021, v3 2022-2024                                           
------------------------------------------------------------------------------


----------------------
SHARK INTEGRAL PACKAGE
----------------------

Number of atoms                             ...     18
Number of basis functions                   ...    384
Number of shells                            ...    168
Maximum angular momentum                    ...      3
Integral batch strategy                     ... SHARK/LIBINT Hybrid
RI-J (if used) integral strategy            ... SPLIT-RIJ (Revised 2003 algorithm where possible)
Printlevel                                  ...      1
Contraction scheme used                     ... PARTIAL GENERAL contraction
Prescreening option                         ... SCHWARTZ
   Thresh                                   ... 2.500e-11
   Tcut                                     ... 2.500e-12
   Tpresel                                  ... 2.500e-12 
Coulomb Range Separation                    ... NOT USED
Exchange Range Separation                   ... NOT USED
Multipole approximations                    ... NOT USED
Finite Nucleus Model                        ... NOT USED
CABS basis                                  ... NOT available
Auxiliary Coulomb fitting basis             ... NOT available
Auxiliary J/K fitting basis                 ... AVAILABLE
   # of basis functions in Aux-JK           ...    834
   # of shells in Aux-JK                    ...    270
   Maximum angular momentum in Aux-JK       ...      4
Auxiliary Correlation fitting basis         ... AVAILABLE
   # of basis functions in Aux-C            ...    846
   # of shells in Aux-C                     ...    258
   Maximum angular momentum in Aux-C        ...      4
Auxiliary 'external' fitting basis          ... NOT available

Checking pre-screening integrals            ... done (  0.0 sec) Dimension = 168
Save PGC pre-screening integrals            ... done (  0.0 sec) Dimension = 168
Calculate PGC overlap integrals             ... done (  0.0 sec) Dimension = 132
Calculating pre-screening integrals (ORCA)  ... done (  0.1 sec) Dimension = 132
Check shell pair data                       ... done (  0.0 sec)
Shell pair information
Shell pair cut-off parameter TPreSel        ...   2.5e-12
Total number of shell pairs                 ...     14196
Shell pairs after pre-screening             ...     10025
Total number of primitive shell pairs       ...     20964
Primitive shell pairs kept                  ...     12988
          la=0 lb=0:   3044 shell pairs
          la=1 lb=0:   3018 shell pairs
          la=1 lb=1:    774 shell pairs
          la=2 lb=0:   1455 shell pairs
          la=2 lb=1:    824 shell pairs
          la=2 lb=2:    240 shell pairs
          la=3 lb=0:    334 shell pairs
          la=3 lb=1:    213 shell pairs
          la=3 lb=2:    110 shell pairs
          la=3 lb=3:     13 shell pairs

Calculating one electron integrals          ... done (  0.0 sec)
Calculating RI/JK V-Matrix + Cholesky decomp... done (  0.0 sec)
Calculating RI/C V-Matrix + Cholesky decomp.... done (  0.0 sec)
Calculating Nuclear repulsion               ... done (  0.0 sec) ENN=    293.564711495199 Eh

Diagonalization of the overlap matrix:
Smallest eigenvalue                        ... 1.486e-03
Time for diagonalization                   ...    0.019 sec
Threshold for overlap eigenvalues          ... 1.000e-07
Number of eigenvalues below threshold      ... 0
Time for construction of square roots      ...    0.009 sec
Total time needed                          ...    0.031 sec

-------------------
DFT GRID GENERATION
-------------------

General Integration Accuracy     IntAcc      ... 4.388
Radial Grid Type                 RadialGrid  ... OptM3 with GC (2021)
Angular Grid (max. ang.)         AngularGrid ... 4 (Lebedev-302)
Angular grid pruning method      GridPruning ... 4 (adaptive)
Weight generation scheme         WeightScheme... mBecke (2022)
Basis function cutoff            BFCut       ... 1.0000e-11
Integration weight cutoff        WCut        ... 1.0000e-14
Partially contracted basis set               ... off
Rotationally invariant grid construction     ... off
Angular grids for H and He will be reduced by one unit

Total number of grid points                  ...    75550
Total number of batches                      ...     1190
Average number of points per batch           ...       63
Average number of grid points per atom       ...     4197

---------------------
SHARK GRID GENERATION
---------------------

General Integration Accuracy     IntAcc      ... 4.388
Radial Grid Type                 RadialGrid  ... OptM3 with GC (2021)
Angular Grid (max. ang.)         AngularGrid ... 4 (Lebedev-302)
Angular grid pruning method      GridPruning ... 4 (adaptive)
Weight generation scheme         WeightScheme... mBecke (2022)
Basis function cutoff            BFCut       ... 1.0000e-11
Integration weight cutoff        WCut        ... 1.0000e-14
Partially contracted basis set               ... off
Rotationally invariant grid construction     ... off
Angular grids for H and He will be reduced by one unit
Steep s-basis detected: some atoms will have their radial
                        grid points doubled.

Total number of grid points                  ...   112616
Total number of batches                      ...     1769
Average number of points per batch           ...       63
Average number of grid points per atom       ...     6256
Initializing property integral containers    ... done (  0.0 sec)

SHARK setup successfully completed in   2.3 seconds

Maximum memory used throughout the entire STARTUP-calculation: 36.3 MB


           ************************************************************
           *        Program running with 8 parallel MPI-processes     *
           *              working on a common directory               *
           ************************************************************
Loading Hartree-Fock densities                     ... done
Calculating cut-offs                               ... done
Initializing the effective Hamiltonian             ... done
Setting up the integral package (SHARK)            ... done
Starting the Coulomb interaction                   ... done (   0.1 sec)
Making the grid                                    ... done (   0.2 sec)
Mapping shells                                     ... done
Starting the XC term evaluation                    ... done (   0.0 sec)
Transforming the Hamiltonian                       ... done (   0.0 sec)
Diagonalizing the Hamiltonian                      ... done (   0.0 sec)
Back transforming the eigenvectors                 ... done (   0.0 sec)
Now organizing SCF variables                       ... done
             **** ENERGY FILE WAS UPDATED (sp.en.tmp) ****
Finished Guess after   0.5 sec
Maximum memory used throughout the entire GUESS-calculation: 19.2 MB


           ************************************************************
           *        Program running with 8 parallel MPI-processes     *
           *              working on a common directory               *
           ************************************************************
----------------------------------------D-I-I-S--------------------------------------------
Iteration    Energy (Eh)           Delta-E    RMSDP     MaxDP     DIISErr   Damp  Time(sec)
-------------------------------------------------------------------------------------------
    1    -455.8872194158485627     0.00e+00  9.61e-04  3.56e-02  3.66e-01  0.700   0.8
    2    -455.3513659558001336     5.36e-01  1.07e-03  4.27e-02  3.45e-01  0.700   0.8
    3    -455.4058722901075953    -5.45e-02  7.00e-04  2.70e-02  2.01e-01  0.700   0.8
                               ***Turning on AO-DIIS***
    4    -455.7666032216917529    -3.61e-01  2.43e-04  9.19e-03  9.60e-02  0.700   0.8
    5    -456.2009727536425316    -4.34e-01  5.73e-04  2.30e-02  6.13e-02  0.000   0.8
    6    -456.3897440327848471    -1.89e-01  1.57e-04  7.35e-03  2.85e-02  0.000   0.8
    7    -456.3925230587482247    -2.78e-03  1.04e-04  4.27e-03  2.20e-02  0.000   0.8
    8    -456.3940647799283852    -1.54e-03  7.49e-05  2.81e-03  1.20e-02  0.000   0.8
    9    -456.3946585270532523    -5.94e-04  5.92e-05  2.73e-03  6.05e-03  0.000   0.8
                              *** Initializing SOSCF ***
---------------------------------------S-O-S-C-F--------------------------------------
Iteration    Energy (Eh)           Delta-E    RMSDP     MaxDP     MaxGrad    Time(sec)
--------------------------------------------------------------------------------------
   10    -456.3948154450836228    -1.57e-04  9.20e-06  4.44e-04  5.47e-04     0.8
   11    -456.3948176319266850    -2.19e-06  4.27e-06  1.14e-04  5.92e-05     0.7
   12    -456.3948179619978873    -3.30e-07  2.73e-06  8.36e-05  2.89e-05     0.8
   13    -456.3948180257424383    -6.37e-08  5.47e-07  1.56e-05  7.52e-06     0.7
   14    -456.3948180313598186    -5.62e-09  1.42e-07  4.79e-06  1.92e-06     0.7
                 **** Energy Check signals convergence ****

               *****************************************************
               *                     SUCCESS                       *
               *           SCF CONVERGED AFTER  14 CYCLES          *
               *****************************************************

             **** ENERGY FILE WAS UPDATED (sp.en.tmp) ****

----------------
TOTAL SCF ENERGY
----------------

Total Energy       :       -456.39481803135982 Eh          -12419.13438 eV

Components:
Nuclear Repulsion  :        293.56471149519928 Eh            7988.30192 eV
Electronic Energy  :       -749.95952952655909 Eh          -20407.43629 eV
One Electron Energy:      -1215.77150755570074 Eh          -33082.82462 eV
Two Electron Energy:        465.81197802914164 Eh           12675.38833 eV

Virial components:
Potential Energy   :       -912.29164331374272 Eh          -24824.71768 eV
Kinetic Energy     :        455.89682528238296 Eh           12405.58330 eV
Virial Ratio       :          2.00109233651423

---------------
SCF CONVERGENCE
---------------

  Last Energy change         ...    5.6174e-09  Tolerance :   1.0000e-08
  Last MAX-Density change    ...    4.7856e-06  Tolerance :   1.0000e-07
  Last RMS-Density change    ...    1.4230e-07  Tolerance :   5.0000e-09
  Last DIIS Error            ...    5.4699e-04  Tolerance :   5.0000e-07
  Last Orbital Gradient      ...    1.9232e-06  Tolerance :   1.0000e-05
  Last Orbital Rotation      ...    3.2326e-06  Tolerance :   1.0000e-05


----------------
ORBITAL ENERGIES
----------------

  NO   OCC          E(Eh)            E(eV) 
   0   2.0000     -20.570291      -559.7461 
   1   2.0000     -20.554298      -559.3109 
   2   2.0000     -20.553290      -559.2835 
   3   2.0000     -20.551728      -559.2410 
   4   2.0000     -20.539747      -558.9149 
   5   2.0000     -20.526503      -558.5545 
   6   2.0000      -1.366688       -37.1895 
   7   2.0000      -1.345453       -36.6116 
   8   2.0000      -1.343074       -36.5469 
   9   2.0000      -1.342303       -36.5259 
  10   2.0000      -1.326958       -36.1084 
  11   2.0000      -1.311012       -35.6744 
  12   2.0000      -0.737100       -20.0575 
  13   2.0000      -0.715596       -19.4724 
  14   2.0000      -0.714639       -19.4463 
  15   2.0000      -0.712751       -19.3949 
  16   2.0000      -0.700075       -19.0500 
  17   2.0000      -0.685975       -18.6663 
  18   2.0000      -0.624367       -16.9899 
  19   2.0000      -0.606458       -16.5026 
  20   2.0000      -0.578995       -15.7553 
  21   2.0000      -0.575479       -15.6596 
  22   2.0000      -0.564240       -15.3537 
  23   2.0000      -0.540499       -14.7077 
  24   2.0000      -0.519487       -14.1360 
  25   2.0000      -0.501740       -13.6530 
  26   2.0000      -0.501265       -13.6401 
  27   2.0000      -0.498320       -13.5600 
  28   2.0000      -0.490688       -13.3523 
  29   2.0000      -0.474756       -12.9188 
  30   0.0000       0.120250         3.2722 
  31   0.0000       0.160941         4.3794 
  32   0.0000       0.164926         4.4879 
  33   0.0000       0.165914         4.5147 
  34   0.0000       0.188873         5.1395 
  35   0.0000       0.267759         7.2861 
  36   0.0000       0.296689         8.0733 
  37   0.0000       0.308639         8.3985 
  38   0.0000       0.326665         8.8890 
  39   0.0000       0.340114         9.2550 
  40   0.0000       0.362811         9.8726 
*Only the first 10 virtual orbitals were printed.
Total SCF time: 0 days 0 hours 0 min 11 sec 
Finished LeanSCF after  11.0 sec

Maximum memory used throughout the entire LEANSCF-calculation: 41.8 MB


           ************************************************************
           *        Program running with 8 parallel MPI-processes     *
           *              working on a common directory               *
           ************************************************************

------------------------------------------------------------------------------
                         ORCA PROPERTY INTEGRAL CALCULATIONS
------------------------------------------------------------------------------

GBWName                                   ... sp.gbw
Number of atoms                           ...     18
Number of basis functions                 ...    384
Max core memory                           ...   6000 MB

Dipole integrals                          ... YES
Quadrupole integrals                      ...  NO
Linear momentum integrals                 ... YES
Angular momentum integrals                ... YES
Higher moments length integrals           ...  NO
Higher moments velocity integrals         ...  NO
Kinetic energy integrals                  ...  NO
GIAO right hand sides                     ...  NO
GIAO dipole derivative integrals          ...  NO
SOC integrals                             ...  NO
EPR diamagnetic integrals (GIAO)          ...  NO
EPR gauge integrals                       ...  NO
Field gradient integrals                  ...  NO (   0 nuclei)
Spin-dipole/Fermi contact integrals       ...  NO (   0 nuclei)
Contact density integrals                 ...  NO (   0 nuclei)
Nucleus-orbit integrals                   ...  NO (   0 nuclei)
Geometric perturbations                   ...  NO (  18 nuclei)

Choice of electric origin   ... Center of mass
Position of electric origin ... (  0.0249, -0.0222,  0.0058) 
Choice of magnetic origin   ... GIAO
Position of magnetic origin ... (  0.0000,  0.0000,  0.0000) 

Calculating integrals                     ... Electric Dipole (Length)     done (  0.0 sec)
Calculating integrals                     ... Linear Momentum              done (  0.0 sec)
Calculating integrals                     ... Angular Momentum  (ElOri)    done (  0.0 sec)

Property integrals calculated in   0.1 sec

Maximum memory used throughout the entire PROPINT-calculation: 20.4 MB


           ************************************************************
           *        Program running with 8 parallel MPI-processes     *
           *              working on a common directory               *
           ************************************************************


--------------------------------------------------------------------------------
                             ORCA-MATRIX DRIVEN CI
--------------------------------------------------------------------------------


Wavefunction type
-----------------
Correlation treatment                      ...      CCSD     
Single excitations                         ... ON
Orbital optimization                       ... OFF
Calculation of Z vector                    ... OFF
Calculation of Brueckner orbitals          ... OFF
Perturbative triple excitations            ... ON
Calculation of F12 correction              ... OFF
Frozen core treatment                      ... chemical core (12 el)
Reference Wavefunction                     ... RHF
  Internal Orbitals:     6 ...   29 ( 24 MO's/ 48 electrons)
  Virtual  Orbitals:    30 ...  347 (318 MO's              )
Number of AO's                             ...    348
Number of electrons                        ...     60
Number of correlated electrons             ...     48

Algorithmic settings
--------------------
Integral transformation                    ... All integrals via the RI transformation
K(C) Formation                             ... RI-DLPNO
   PNO-Integral Storage                    ... ON DISK
   PNO occupation number cut-off           ... 3.330e-07
   Singles PNO occupation number cut-off   ... 9.990e-09
   PNO Mulliken prescreening cut-off       ... 1.000e-03
   Domain cut-off (Mulliken population)    ... 1.000e-03
   PNO Normalization                       ...    1
Maximum number of iterations               ...        50
Convergence tolerance (max. residuum)      ... 1.000e-05
Level shift for amplitude update           ... 2.000e-01
Maximum number of DIIS vectors             ...         7
DIIS turned on at iteration                ...         0
Damping before turning on DIIS             ...     0.500
Damping after turning on DIIS              ...     0.000
Pair specific amplitude update             ... OFF
Natural orbital iterations                 ... OFF
Perturbative natural orbital generation    ... OFF
Printlevel                                 ... 2

Singles Fock matrix elements calculated using PNOs.

Memory handling:
----------------
Maximum memory for working arrays          ...   6000 MB
Data storage in matrix containers          ... UNCOMPRESSED
Data type for integral storage             ... DOUBLE
In-Core Storage of quantities:
   Amplitudes+Sigma Vector      ... NO
   J+K operators                ... NO
   DIIS vectors                 ... NO
   3-external integrals         ... NO
   4-external integrals         ... NO

Localization treatment:
-----------------------
Localization option                        ...    6
Localization threshhold                    ... -1.0e+00
Using relative localization threshhold     ... 1.0e-08
Neglect threshold for strong pairs         ... 1.000e-04 Eh
Prescreening threshold for very weak pairs ... 1.000e-06 Eh

Initializing the integral package          ... done
Localizing the valence orbitals
Localizing the valence orbitals
------------------------------------------------------------------------------
                           ORCA ORBITAL LOCALIZATION
------------------------------------------------------------------------------

Input orbitals are from                  ... sp.gbw
Output orbitals are to                   ... sp.loc
Max. number of iterations                ... 128
Localizations seeded randomly            ... off
Convergence tolerance                    ... 1.000e-06
Using relative localization threshhold   ... 1.000e-08
Threshold for strong local MOs           ... 9.500e-01
Threshold for bond MOs                   ... 8.500e-01
Operator                                 ... 0
Orbital range for localization           ... 6 to 29
Localization criterion                   ... FOSTER-BOYS (AUGMENTED HESSIAN)
Doing the dipole integrals     ... o.k.
Initial value of the localization sum :   445.249711
ITERATION   0 : L=  457.7110244974 DL=  1.25e+01 (AVERGE_DL)=    0.2124845551 
ITERATION   1 : L=  459.4134675767 DL=  1.70e+00 (AVERGE_DL)=    0.0785383475 
ITERATION   2 : L=  460.0141862831 DL=  6.01e-01 (AVERGE_DL)=    0.0466531569 
ITERATION   3 : L=  460.0609178284 DL=  4.67e-02 (AVERGE_DL)=    0.0130121940 
ITERATION   4 : L=  460.0636556463 DL=  2.74e-03 (AVERGE_DL)=    0.0031495444 
ITERATION   5 : L=  460.0638248813 DL=  1.69e-04 (AVERGE_DL)=    0.0007830519 
ITERATION   6 : L=  460.0638361374 DL=  1.13e-05 (AVERGE_DL)=    0.0002019481 
ITERATION   7 : L=  460.0638369272 DL=  7.90e-07 (AVERGE_DL)=    0.0000534933 
LOCALIZATION SUM CONVERGED

------------------------------------------------------
AUGMENTED HESSIAN OPTIMIZATION OF FOSTER-BOYS ORBITALS
------------------------------------------------------

Spin operator:           0
Orbital window:          6 to 29
Number of iterations:    128
Gradient tolerance:      1.000e-06
Number of pairs:         276
Davidson threshold:      2000
Diagonalization method:  LAPACK
Iter:    0   L: 460.0638369272   Grad. norm: 2.350436e-03
   *** Likely close to a maximum now. ***
       Augmented Hessian eigenvalues:  1.48e-07 -1.35e+00 -1.35e+00 -1.38e+00 ... 
Iter:    1   L: 460.0638370014   Grad. norm: 3.607105e-08
LOCALIZATION HAS CONVERGED.

Eigenvalues of the Hessian:
  0 -1.345e+00
  1 -1.353e+00
  2 -1.378e+00
  3 -1.428e+00
  4 -1.454e+00
  5 -1.464e+00
  6 -3.019e+00
  7 -3.072e+00
  8 -3.087e+00
  9 -3.116e+00
    ...


--------------------------------------------------------------------------------
                    LOCALIZED MOLECULAR ORBITAL COMPOSITIONS
--------------------------------------------------------------------------------

The Mulliken populations for each LMO on each atom are computed
The LMO`s will be ordered according to atom index and type
  (A) Strongly localized MO`s have populations of >=0.950 on one atom
  (B) Two center bond orbitals have populations of >=0.850 on two atoms
  (C) Other MO`s are considered to be `delocalized`

FOUND  -  12 strongly local MO`s
       -  12 two center bond MO`s
       -   0 significantly delocalized MO`s

Rather strongly localized orbitals:
MO  17:  15O  -   0.991452
MO  16:  15O  -   0.984910
MO  15:  12O  -   0.986811
MO  14:  12O  -   0.992636
MO  13:   9O  -   0.980120
MO  12:   9O  -   0.980428
MO  11:   6O  -   0.979430
MO  10:   6O  -   0.975671
MO   9:   3O  -   0.973784
MO   8:   3O  -   0.978343
MO   7:   0O  -   0.985626
MO   6:   0O  -   0.986351
Bond-like localized orbitals:
MO  29:  17H  -   0.383441  and  15O  -   0.623046
MO  28:  16H  -   0.335301  and  15O  -   0.674747
MO  27:  14H  -   0.339546  and  12O  -   0.670383
MO  26:  13H  -   0.382899  and  12O  -   0.622827
MO  25:  11H  -   0.380992  and   9O  -   0.625998
MO  24:  10H  -   0.303531  and   9O  -   0.707819
MO  23:   8H  -   0.381388  and   6O  -   0.626687
MO  22:   7H  -   0.300079  and   6O  -   0.711082
MO  21:   5H  -   0.337832  and   3O  -   0.673779
MO  20:   4H  -   0.336904  and   3O  -   0.673961
MO  19:   2H  -   0.381221  and   0O  -   0.622657
MO  18:   1H  -   0.295840  and   0O  -   0.716147
Localized MO's were stored in: sp.loc

Localizing the core orbitals
------------------------------------------------------------------------------
                           ORCA ORBITAL LOCALIZATION
------------------------------------------------------------------------------

Input orbitals are from                  ... sp.loc
Output orbitals are to                   ... sp.loc
Max. number of iterations                ... 128
Localizations seeded randomly            ... off
Convergence tolerance                    ... 1.000e-06
Using relative localization threshhold   ... 1.000e-08
Threshold for strong local MOs           ... 9.500e-01
Threshold for bond MOs                   ... 8.500e-01
Operator                                 ... 0
Orbital range for localization           ... 0 to 5
Localization criterion                   ... FOSTER-BOYS (AUGMENTED HESSIAN)
Doing the dipole integrals     ... o.k.
Initial value of the localization sum :   110.676254
ITERATION   0 : L=  110.6762561029 DL=  1.68e-06 (AVERGE_DL)=    0.0003349408 
ITERATION   1 : L=  110.6762561029 DL=  0.00e+00 (AVERGE_DL)=    0.0000000000 
LOCALIZATION SUM CONVERGED

------------------------------------------------------
AUGMENTED HESSIAN OPTIMIZATION OF FOSTER-BOYS ORBITALS
------------------------------------------------------

Spin operator:           0
Orbital window:          0 to 5
Number of iterations:    128
Gradient tolerance:      1.000e-06
Number of pairs:         15
Davidson threshold:      2000
Diagonalization method:  LAPACK
Iter:    0   L: 110.6762561029   Grad. norm: 9.059553e-07
   *** Likely close to a maximum now. ***
       Augmented Hessian eigenvalues:  3.50e-15 -1.01e+02 -1.02e+02 -1.03e+02 ... 
Iter:    1   L: 110.6762561029   Grad. norm: 1.714880e-21
LOCALIZATION HAS CONVERGED.

Eigenvalues of the Hessian:
  0 -1.008e+02
  1 -1.024e+02
  2 -1.034e+02
  3 -1.137e+02
  4 -1.137e+02
  5 -1.139e+02
  6 -1.162e+02
  7 -2.038e+02
  8 -2.174e+02
  9 -2.246e+02
    ...


--------------------------------------------------------------------------------
                    LOCALIZED MOLECULAR ORBITAL COMPOSITIONS
--------------------------------------------------------------------------------

The Mulliken populations for each LMO on each atom are computed
The LMO`s will be ordered according to atom index and type
  (A) Strongly localized MO`s have populations of >=0.950 on one atom
  (B) Two center bond orbitals have populations of >=0.850 on two atoms
  (C) Other MO`s are considered to be `delocalized`

FOUND  -   6 strongly local MO`s
       -   0 two center bond MO`s
       -   0 significantly delocalized MO`s

Rather strongly localized orbitals:
MO   5:  15O  -   0.999750
MO   4:  12O  -   0.999756
MO   3:   9O  -   0.999755
MO   2:   6O  -   0.999741
MO   1:   3O  -   0.999730
MO   0:   0O  -   0.999798
Localized MO's were stored in: sp.loc

Warning: reference  - re-canonicalizations have been set to INT 1 VIRT 1
Warning: internal orbitals are localized - no re-canonicalization of internal orbitals
Warning: UsePNO is turned on - no re-canonicalization of internal and virtual orbitals
Fock densities were made 
Making Fock matrix and reference energy:

--------------------------
CLOSED-SHELL FOCK OPERATOR
--------------------------

Time needed for Fock operator              ...            1.137 sec
Reference energy                           ...   -456.394818032

--------------
DLPNO SETTINGS (2015 fully linear scaling implementation)
--------------

TCutMKN:           1.000e-03
TCutPAO:           1.000e-03
TCutPNO:           3.330e-07
TCutPNOSingles:    9.990e-09
TCutEN:            9.700e-01
TCutPAOExt:        1.000e-01
TCutPairs:         1.000e-04
TCutPre:           1.000e-06
TCutOSV:           1.000e-06
TCutDOij:          1.000e-05
TCutDO:            1.000e-02
TCutC:             1.000e-04
TCutCPAO:          1.000e-03
TCutCMO:           1.000e-03
TScaleDOMP2PreScr: 2.000e+00
TScaleMKNMP2PreScr:1.000e+01
TScalePNOMP2PreScr:1.000e+00
PAO overlap thresh 1.000e-08
Using PNOs for Singles Fock computation
Use new domains
Use fully linear algorithm
TCutTNO:           1.000e-09
TCutMP2Pairs:      1.000e-05
TCutDOStrong:      2.000e-02
TCutDOWeak:        4.000e-02
TCutMKNStrong:     1.000e-02
TCutMKNWeak:       1.000e-01
NTCutTNO:          1

--------------------------
Mulliken population of the LMOs            ... ok
Performing proximity check                 ... No problems found
Calculating differential overlap integrals ... ok

--------------------------
ELECTRON PAIR PRESCREENING
--------------------------

Dipole-based pair screening          .... used

   TCutDOij = 1.000000e-05
   TCutPre  = 1.000000e-06
   .... Finished loop over pairs
Total time spent in the prescreening                  ...     0.000 sec
sum of pair energies estimated for screened out pairs ...       0.000000000000 Eh
Thresholds for map construction and integral transformation for crude MP2:
   TCutMKN                    ...     1.0e-02
   TCutDO                     ...     2.0e-02
   TCutPairs                  ...     1.0e-04
   TCutPNO_CrudeMP2           ...     3.3e-07
   TCutPNOSingles_CrudeMP2    ...     1.0e-08
--------------------------------
LOCAL RI TRANSFORMATION (IAVPAO)
--------------------------------

Orbital window:       6 to 29
Number of PAOs:     348
Basis functions:    348 (132 shells)
Aux. functions:     846 (258 shells)
Use SHARK:           on
Have SHARK:         yes

Processing maps (0.0 sec)
Average map sizes:
   Aux shells -> MOs              24.0
   Aux shells -> PAOs            348.0
   MOs        -> AO shells       126.7
   PAOs       -> AO shells       132.0

Calculating integrals (0.6 sec, 53.917 MB)
Sorting integrals (0.1 sec, 53.908 MB)
Total time for the integral transformation: 0.7 sec
--------------------------------
INITIAL GUESS AND PNO GENERATION
--------------------------------

PNO truncation parameters                   .... 
    PAOOverlapThresh   =        1.000e-08

    TCutPairs          =        1.000e-04
    TCutPNO            =        3.330e-07
    TCutPNOSingles     =        9.990e-09
    TCutMP2Pairs       =        1.000e-05
    TCutMKN            =        1.000e-02
    TCutDO             =        2.000e-02

Pair selection                          .... not used
Type of local MP2 treatment                 .... semi-local MP2
Strategy for PNO selection                  .... occupation number selection
Pair density normalization                  .... MP2 norm
Spin component scaling                      .... not used

   .... Finished loop over pairs
Making pair pair interaction lists          ... done

                       ===========================
                        109 OF  300 PAIRS ARE KEPT CCSD PAIRS
                        132 OF  300 PAIRS ARE KEPT MP2 PAIRS FOR (T)
                         59 OF  300 PAIRS ARE SKIPPED
                       ===========================

Total time spent in the initial guess                 ...     1.527 sec
SL-MP2 correlation energy (all non-screened pairs)    ...      -1.553730358737 Eh

Initial PNO correlation energy                        ...      -1.546546179313 Eh
sum of pair energies prescreened and skipped MP2 pairs...      -0.000422754315 Eh
sum of pair energies of crude MP2 skipped pairs only  ...      -0.000422754315 Eh
sum of MP2 pair energies for pairs that were not kept ...      -0.005734500275 Eh
sum of PNO error estimates for the kept pairs         ...      -0.001449679150 Eh
                                                          --------------------
sum of all corrections                                         -0.007184179425
Initial total correlation energy                               -1.553730358737
Thresholds for map construction and integral transformation for fine MP2 and CCSD(T) calculation:
   TCutMKN   ...     1.0e-03
   TCutDO    ...     1.0e-02
   TCutPairs ...     1.0e-04
   TCutCMO   ...     1.0e-03
   TCutCPAO  ...     1.0e-03

Thresholds for map construction and integral transformation for strong Triples:
   TCutMKN   ...     1.0e-02
   TCutDO    ...     2.0e-02
   TCutCMO   ...     1.0e-03
   TCutCPAO  ...     1.0e-03

Thresholds for map construction and integral transformation for weak Triples:
   TCutMKN   ...     1.0e-01
   TCutDO    ...     4.0e-02
   TCutCMO   ...     1.0e-03
   TCutCPAO  ...     1.0e-03

--------------------------------
LOCAL RI TRANSFORMATION (IAVPAO)
--------------------------------

Orbital window:       6 to 29
Number of PAOs:     348
Basis functions:    348 (132 shells)
Aux. functions:     846 (258 shells)
Use SHARK:           on
Have SHARK:         yes

Processing maps (0.0 sec)
Average map sizes:
   Aux shells -> MOs              23.7
   Aux shells -> PAOs            348.0
   MOs        -> AO shells       126.7
   PAOs       -> AO shells       132.0

Calculating integrals (0.6 sec, 53.280 MB)
Sorting integrals (0.1 sec, 53.271 MB)
Total time for the integral transformation: 0.7 sec
--------------------------------
INITIAL GUESS AND PNO GENERATION
--------------------------------

PNO truncation parameters                   .... 
    PAOOverlapThresh   =        1.000e-08

    TCutPairs          =        1.000e-04
    TCutPNO            =        3.330e-07
    TCutPNOSingles     =        9.990e-09
    TCutMP2Pairs       =        1.000e-05
    TCutMKN            =        1.000e-03
    TCutDO             =        1.000e-02

Pair selection                          .... not used
Type of local MP2 treatment                 .... semi-local MP2
Strategy for PNO selection                  .... occupation number selection
Pair density normalization                  .... MP2 norm
Spin component scaling                      .... not used

   .... Finished loop over pairs

 PNO Occupation Number Statistics: 
  | Av. % of trace(Dij) retained        ...  98.043312869901
  | sigma^2 in % of trace(Dij) retained ...   3.82e+00
  | Av. % of trace(Di) retained         ...  99.999524827265
  | sigma^2 in % of trace(Di) retained  ...   1.60e-08
 Distributions of % trace(Dij) recovered:
  |       >= 99.9  ...    60 ( 24.9 % of all pairs)
  |   [80.0, 90.0) ...     2 (  0.8 % of all pairs)
  |   [90.0, 99.0) ...   163 ( 67.6 % of all pairs)
  |   [99.0, 99.9) ...    16 (  6.6 % of all pairs)
 Distributions of % trace(Di) recovered :
  |       >= 99.9  ...    24 (100.0 % of all I-pairs )

Making pair pair interaction lists          ... done

                       ===========================
                        109 OF  241 PAIRS ARE KEPT
                       ===========================

Total time spent in the initial guess                 ...     2.237 sec
SL-MP2 correlation energy (all non-screened pairs)    ...      -1.553649113805 Eh

Initial PNO correlation energy                        ...      -1.546855139632 Eh
sum of pair energies estimated for screened out pairs ...      -0.000422754315 Eh
sum of MP2 pair energies for pairs that were not kept ...      -0.005308099947 Eh
sum of PNO error estimates for the kept pairs         ...      -0.001485874226 Eh
                                                          --------------------
sum of all corrections                                         -0.007216728489
Initial total correlation energy                               -1.554071868120
Thresholds for map construction and integral transformation for fine MP2 and CCSD(T) calculation:
   TCutMKN   ...     1.0e-03
   TCutDO    ...     1.0e-02
   TCutPairs ...     1.0e-04
   TCutCMO   ...     1.0e-03
   TCutCPAO  ...     1.0e-03

Time for aux screen maps:            0.002
Time for maps after fine MP2:            0.007
-----------------------------
LOCAL RI TRANSFORMATION (IJV)
-----------------------------

Orbital window:       6 to 29
Basis functions:    348 (132 shells)
Aux. functions:     846 (258 shells)
Use SHARK:           on

Processing maps (0.0 sec)
Average map sizes:
   Aux shells -> MOs(i)           20.7
   Aux shells -> MOs(j)           24.0
   MOs        -> AO shells       126.7

Calculating integrals NOTE: Switching SHARK to General Contraction for MDCI
      If that is not desired please turn off the PGCFlag in the input (%shark PGCFlag 0 end)
(1.7 sec, 3.239 MB)
Sorting integrals (0.0 sec, 3.230 MB)
Total time for the integral transformation: 1.7 sec
--------------------------------
LOCAL RI TRANSFORMATION (VABPAO)
--------------------------------

Number of PAOs:     348
Basis functions:    348 (132 shells)
Aux. functions:     846 (258 shells)
Use SHARK:           on

Processing maps (0.0 sec)
Average map sizes:
   Aux shells -> PAOs            348.0
   PAOs       -> AO shells       132.0

Calculating integrals NOTE: Switching SHARK to General Contraction for MDCI
      If that is not desired please turn off the PGCFlag in the input (%shark PGCFlag 0 end)
(2.0 sec, 781.672 MB)
Finished


-------------------------------------
Pair Pair Term precalculation with     
RI-(ij|mn) and (im|jn) transformation  
ON THE FLY                             
-------------------------------------

   IBatch   1 (of   1)              ... done (    4.778 sec)
Total EXT                           ...           4.778 sec

IAVPA Available = YES
VABPAO Available= YES
IJV Available   = YES
IJK Available   = NO
PNO3i Available = YES
PNO3j Available = YES
PNO4 Available  = YES
---------------------
RI-PNO TRANSFORMATION
---------------------

Total Number of PNOs                   ...  3351
Average number of PNOs per pair        ...    30
Maximal number of PNOs per pair        ...    44
   #pairs with  1 -  5 PNOs   :    0
   #pairs with  6 - 10 PNOs   :    0
   #pairs with 11 - 15 PNOs   :   20
   #pairs with 16 - 20 PNOs   :   22
   #pairs with 21 - 25 PNOs   :    0
   #pairs with 26 - 30 PNOs   :    4
   #pairs with 31 - 35 PNOs   :    5
   #pairs with 36 - 40 PNOs   :   22
   #pairs with 41 - 45 PNOs   :   36
   #pairs with 46 - 50 PNOs   :    0

Generation of (ij|ab)[P] integrals            ... on
Generation of (ia|bc)[P],(ja|bc)[P] integrals ... on
Storage of 3 and 4 external integrals         ... on
Generation of ALL (ka|bc)[P] integrals        ... on
Keep RI integrals in memory                   ... off

Ibatch:  1 (of  1)
Starting 2-4 index PNO integral generation ... done

Timings:
Total PNO integral transformation time     ...          4.656 sec
Size of the 3-external file                ...        36 MB
Size of the 4-external file                ...       191 MB
Size of the IKJL file                      ...         0 MB
Size of the all 3-external file            ...       440 MB
Size of the 1-external file                ...         1 MB

Making pair/pair overlap matrices          ... done (    0.623 sec)
Size of the pair overlap file              ... 84 MB
Redoing the guess amplitudes               ... done (    0.001 sec)

-------------------------
FINAL STARTUP INFORMATION
-------------------------

E(0)                                       ...   -456.394818032
E(SL-MP2)                                  ...     -1.553649114
E(SL-MP2) including corrections            ...     -1.554071868
Initial E(tot)                             ...   -457.948889900
<T|T>                                      ...      0.336562052
Number of pairs included                   ... 109
Total number of pairs                      ... 300

------------------------------------------------
                  RHF COUPLED CLUSTER ITERATIONS
------------------------------------------------

Number of PNO amplitudes to be optimized   ...       120221
Number of non-PNO amplitudes               ...     11022516
Untruncated number of regular amplitudes   ...     30337200

Iter       E(tot)           E(Corr)          Delta-E          Residual     Time
  0   -457.948921018     -1.546886257      0.006762856      0.015514258    2.33
                           *** Turning on DIIS ***
  1   -457.985882555     -1.583847795     -0.036961538      0.006339131    2.31
  2   -458.018604472     -1.616569712     -0.032721916      0.001872406    2.28
  3   -458.024290079     -1.622255319     -0.005685607      0.000902872    2.27
  4   -458.025657201     -1.623622441     -0.001367122      0.000246871    2.28
  5   -458.025851968     -1.623817208     -0.000194766      0.000099363    2.27
  6   -458.025893767     -1.623859007     -0.000041799      0.000035243    2.29
  7   -458.025894246     -1.623859486     -0.000000479      0.000020970    2.32
  8   -458.025896741     -1.623861981     -0.000002495      0.000007225    2.30
               --- The Coupled-Cluster iterations have converged ---

----------------------
COUPLED CLUSTER ENERGY
----------------------

E(0)                                       ...   -456.394818032
E(CORR)(strong-pairs)                      ...     -1.623861981
E(CORR)(weak-pairs)                        ...     -0.007216728
E(CORR)(corrected)                         ...     -1.631078709
E(TOT)                                     ...   -458.025896741
Singles Norm <S|S>**1/2                    ...      0.052726533  
T1 diagnostic                              ...      0.007610420  

------------------
LARGEST AMPLITUDES
------------------
  19-> 30  19-> 30       0.033166
  23-> 30  23-> 30       0.032800
  25-> 30  25-> 30       0.032205
  29-> 30  29-> 30       0.032026
  26-> 30  26-> 30       0.031929
  20-> 30  20-> 30       0.031296
  21-> 30  21-> 30       0.030916
  26-> 31  26-> 31       0.030828
  15-> 32  15-> 32       0.030572
  29-> 31  29-> 31       0.030550
  28-> 32  28-> 32       0.029938
  16-> 32  16-> 32       0.029913
  27-> 30  27-> 30       0.029775
  27-> 32  27-> 32       0.029400
  22-> 32  22-> 32       0.029320
  28-> 30  28-> 30       0.029224


-------------------------------------------
DLPNO BASED TRIPLES CORRECTION
-------------------------------------------

Singles multiplier          ...  1.000000
TCutTNO                     ... 1.000e-09
TCutMP2Pairs                ... 1.000e-05
TCutDOStrong                ... 2.000e-02
TCutMKNStrong               ... 1.000e-02
TCutDOWeak                  ... 4.000e-02
TCutMKNWeak                 ... 1.000e-01

Fragment selection                          .... not used
Fock matrix occ-virt block is zero --> Setting DT_in_Triples to false.
Number of Triples that are to be computed   ...       497

 . . . . . . . . .
10% done  
20% done  
30% done  
40% done  
50% done  
60% done  
70% done  
80% done  
90% done               (      9.299 sec)
Triples timings:
Total time for T0               ...    10.574 sec
Total time for Iterative (T)    ...     0.000 sec
Total time of overall (T)       ...    11.517 sec

Triples List generation         ...     0.000 sec
TNO generation                  ...     1.270 sec
Pair density generation         ...     0.002 sec
Look up tables                  ...     0.000 sec
Generating 3-index integrals    ...     5.895 sec
  Make 4-ind.int. from 3-ind.int...     0.816 sec
  Projecting amplitudes (D + S) ...     1.502 sec
  Downprojecting integrals      ...     0.000 sec
  Energy contr. (sum over a,b,c)...     0.258 sec
Fitting ET(->0)                 ...     0.000 sec

Everything after 3-index        ...     3.404 sec

Timing details:
 TNO integrals                  ...     6.595 sec
   Reading 3-index integrals    ...     0.327 sec
   Sorting integrals            ...     0.945 sec
       Sorting integrals 1      ...     0.000 sec
       Sorting integrals 2      ...     0.663 sec
       Sorting integrals 3      ...     0.023 sec
       Sorting integrals 4      ...     0.005 sec
       Sorting integrals 5      ...     0.012 sec
       Sorting integrals 6      ...     0.242 sec
   Calculating local VM**-1/2   ...     0.057 sec
   Orthogonal. integrals        ...     0.107 sec
   Multipl. 3-index integrals   ...     5.160 sec
   All concerning IRIab (w/TNO) ...     0.356 sec

 Calculate W0/W1                ...     0.826 sec
 W 3-ext contribution           ...     0.465 sec
 W 3-int contribution           ...     0.159 sec
 Sorting W                      ...     0.163 sec

 V exchange contribution        ...     0.091 sec

 Timings for Triples without generation
     of 3-index integrals       ...     3.403 sec
       0 weak pairs             ...     1.816 sec
       1 weak pair              ...     1.587 sec
       2 weak pairs             ...     0.000 sec
       3 weak pairs             ...     0.000 sec
  Extra time for extrapolation  ...     0.000 sec

Number of Triples   (0, 1, 2, 3 weak pairs; overall):    278     219       0       0  (   497)
Number of Atoms     (0, 1, 2, 3 weak pairs; overall):   10.1     9.4     0.0     0.0  (    18)
Number of PAOs      (0, 1, 2, 3 weak pairs; overall):  207.2   179.4     0.0     0.0  (   348)
Number of AuxFcns   (0, 1, 2, 3 weak pairs; overall):  193.6   241.2     0.0     0.0  (   846)
Number of TNOs      (0, 1, 2, 3 weak pairs         ):   63.6    55.0     0.0     0.0
Aver. Number of NTNO, Atoms, PAOs, AuxFcns / Triples:    497    59.8     9.8   194.9   214.6

Triples Correction (T)                     ...     -0.048275833
Final correlation energy                   ...     -1.679354543
E(CCSD)                                    ...   -458.025896741
E(CCSD(T))                                 ...   -458.074172574



--------------------------------------------------------------------------------
                                    TIMINGS
--------------------------------------------------------------------------------


Total execution time                   ...       54.371 sec

Localization of occupied MO's          ...        0.203 sec (  0.4%)
Fock Matrix Formation                  ...        1.137 sec (  2.1%)
Global overlap, Fock, MKN matrices     ...        0.280 sec (  0.5%)
Differential overlap integrals         ...        0.611 sec (  1.1%)
Organizing maps                        ...        0.021 sec (  0.0%)
RI 3-index integral generations        ...        5.141 sec (  9.5%)
RI-PNO integral transformation         ...       10.475 sec ( 19.3%)
Initial Guess                          ...        3.817 sec (  7.0%)
DIIS Solver                            ...        0.324 sec (  0.6%)
State Vector Update                    ...        0.005 sec (  0.0%)
Sigma-vector construction              ...       20.304 sec ( 37.3%)
  <D|H|D>(0-ext)                       ...        1.633 sec (  8.0% of sigma)
  <D|H|D>(2-ext Fock)                  ...        0.004 sec (  0.0% of sigma)
  <D|H|D>(2-ext)                       ...        1.786 sec (  8.8% of sigma)
  <D|H|D>(4-ext)                       ...        1.440 sec (  7.1% of sigma)
  <D|H|D>(4-ext-corr)                  ...        6.327 sec ( 31.2% of sigma)
  CCSD doubles correction              ...        0.170 sec (  0.8% of sigma)
  <S|H|S>                              ...        1.641 sec (  8.1% of sigma)
  <S|H|D>(1-ext)                       ...        0.173 sec (  0.8% of sigma)
  <D|H|S>(1-ext)                       ...        0.004 sec (  0.0% of sigma)
  <S|H|D>(3-ext)                       ...        0.077 sec (  0.4% of sigma)
  Fock-dressing                        ...        4.016 sec ( 19.8% of sigma)
  Singles amplitudes                   ...        0.469 sec (  2.3% of sigma)
  (ik|jl)-dressing                     ...        1.788 sec (  8.8% of sigma)
  (ij|ab),(ia|jb)-dressing             ...        0.679 sec (  3.3% of sigma)
  Pair energies                        ...        0.004 sec (  0.0% of sigma)
Total Time for computing (T)           ...       11.519 sec ( 21.2% of ALL)


Maximum memory used throughout the entire MDCI-calculation: 490.2 MB

-------------------------   --------------------
FINAL SINGLE POINT ENERGY      -458.074172574321
-------------------------   --------------------



           ************************************************************
           *        Program running with 8 parallel MPI-processes     *
           *              working on a common directory               *
           ************************************************************

------------------------------------------------------------------------------
                              ORCA PROPERTY CALCULATIONS
------------------------------------------------------------------------------

GBWName                                 ... sp.gbw
Number of atoms                         ...     18
Number of basis functions               ...    384
Max core memory                         ...   6000 MB

Electric properties:
Dipole moment                           ... YES
Quadrupole moment                       ...  NO
Static polarizability (Dipole/Dipole)   ...  NO
Static polarizability (Dipole/Quad.)    ...  NO
Static polarizability (Quad./Quad.)     ...  NO
Static polarizability (Velocity)        ...  NO

Atomic electric properties:
Dipole moment                           ...  NO
Quadrupole moment                       ...  NO
Static polarizability                   ...  NO

Choice of electric origin               ... Center of mass
Position of electric origin             ...     0.024897    -0.022154     0.005782

General magnetic properties:
Magnetizability                         ...  NO

EPR properties:
g-Tensor (aka g-matrix)                 ...  NO
Zero-Field splitting spin-orbit         ...  NO
Zero-field splitting spin-spin          ...  NO
Hyperfine couplings                     ...  NO (   0 nuclei)
Quadrupole couplings                    ...  NO (   0 nuclei)
Contact density                         ...  NO (   0 nuclei)

NMR properties:
Chemical shifts                         ...  NO (   0 nuclei)
Spin-rotation constants                 ...  NO (   0 nuclei)
Spin-spin couplings                     ...  NO (   0 nuclei,    0 pairs)

Choice of magnetic origin               ... GIAO
Position of magnetic origin             ...     0.000000     0.000000     0.000000

Properties with geometric perturbations:
SCF Hessian                             ...  NO
IR spectrum                             ...  NO
VCD spectrum                            ...  NO
X-ray spectroscopy properties:
SCF XES/XAS/RIXS spectra                ...  NO


-------------
DIPOLE MOMENT
-------------

Method             : SCF
Type of density    : Electron Density
Multiplicity       :   1
Irrep              :   0
Energy             :  -456.3948180313598186 Eh
Relativity type    : 
Basis              : AO
                                X                 Y                 Z
Electronic contribution:      0.327990927      -0.173279233       0.050335243
Nuclear contribution   :     -1.493801843       1.329225834      -0.346934572
                        -----------------------------------------
Total Dipole Moment    :     -1.165810917       1.155946600      -0.296599330
                        -----------------------------------------
Magnitude (a.u.)       :      1.668322151
Magnitude (Debye)      :      4.240537906



--------------------
Rotational spectrum 
--------------------
 
Rotational constants in cm-1:             0.050511             0.044886             0.038954 
Rotational constants in MHz :          1514.276533          1345.634164          1167.819844 

Dipole components along the rotational axes: 
x,y,z [a.u.] :    -1.132553     1.196491    -0.262739 
x,y,z [Debye]:    -2.878721     3.041238    -0.667830 

 

Dipole moment calculation done in   0.0 sec 

Maximum memory used throughout the entire PROP-calculation: 17.6 MB

--------------------------------
SUGGESTED CITATIONS FOR THIS RUN
--------------------------------

Below you find a list of papers that are relevant to this ORCA run
We neither can nor want to force you to cite these papers, but we appreciate if you do
You receive ORCA, which is the product of decades of hard work by many enthusiastic individuals, for free
The only thing we kindly ask in return is that you cite our papers,
We deeply appreciate it, if you show your appreciation for ORCA by not just citing the generic ORCA reference.

Please note that relegating all ORCA citations to the supporting information does *not* help us.
SI sections are not indexed - citations you put there will not count into any citation statistics
But we need these citations in order to attract the funding resources that allow us to do what we are doing

Therefore, if you are a happy ORCA user, please consider citing a few of the papers listed below in the main body of your paper

In addition to the list printed below, the program has created the file sp.bibtex that contains the list in bibtex format
You can import this file easily into all common literature databanks and citation aid programs


List of essential papers. We consider these as the minimum necessary citations

  1. Neese,F.
     Software update: the ORCA program system, version 5.0
     WIRES Comput. Molec. Sci., 2022 12(1)e1606
     doi.org/10.1002/wcms.1606

List of papers to cite with high priority. The work reported in these papers was absolutely
necessary for this run to complete.
Our perspective: the developers of density functionals and basis sets usually get cited in chemistry papers
Good! But without the algorithms to do something with them, the functionals or basis sets would not do anything.
Hence, in our opinion, the algorithm design and method developments papers are equally worthy of getting cited

  1. Neese,F.
     An improvement of the resolution of the identity approximation for the formation of the Coulomb matrix
     J. Comp. Chem., 2003 24(14)1740-1747
     doi.org/10.1002/jcc.10318
  2. Kossmann,S.; Neese,F.
     Comparison of two efficient approximate Hartee-Fock approaches
     Chem. Phys. Lett., 2009 481 240-243
     doi.org/10.1016/j.cplett.2009.09.073
  3. Neese,F.; Hansen,A.; Liakos,D.G.
     Efficient and accurate approximations to the local coupled cluster singles doubles method using a truncated pair natural orbital basis
     J. Chem. Phys., 2009 131 064103
     doi.org/10.1063/1.3173827
  4. Neese,F.; Wennmohs,F.; Hansen,A.
     Efficient and accurate local approximations to coupled-electron pair approaches: An attempt to revive the pair natural orbital method
     J. Chem. Phys., 2009 130 114108
     doi.org/10.1063/1.3086717
  5. Riplinger,C.; Neese,F.
     An efficient and near linear scaling pair natural orbital based local coupled cluster method
     J. Chem. Phys., 2013 138(3)Art. No. 034106
     doi.org/10.1063/1.4773581
  6. Riplinger,C.; Sandhoefer,B.; Hansen,A.; Neese,F.
     Natural triple excitations in local coupled cluster calculations with pair natural orbitals
     J. Chem. Phys., 2013 139(13)Art. No. 134101
     doi.org/10.1063/1.4821834
  7. Riplinger,C.; Pinski,P.; Becker,U.; Valeev,E.F.; Neese,F.
     Sparse maps-A systematic infrastructure for reduced-scaling electronic structure methods. II. Linear scaling domain based pair natural orbital coupled cluster theory
     J. Chem. Phys., 2016 144 
     doi.org/10.1063/1.4939030
  8. Bistoni,G.; Riplinger,C.; Minenkov,Y.; Cavallo,L.; Auer,A.A.; Neese,F.
     Treating Subvalence Correlation Effects in Domain Based Pair Natural Orbital Coupled Cluster Calculations: An Out-of-the-Box Approach
     J. Theo. Comp. Chem., 2017 13 3220-3227
     doi.org/10.1021/acs.jctc.7b00352
  9. Neese,F.
     The SHARK Integral Generation and Digestion System
     J. Comp. Chem., 2022  1-16
     doi.org/10.1002/jcc.26942

List of suggested additional citations. These are papers that are important in the 'surrounding' of 
of this run, or papers that preceded the highly important papers. If you like your results we are grateful for a citation.

  1. Neese,F.
     The ORCA program system
     WIRES Comput. Molec. Sci., 2012 2(1)73-78
     doi.org/10.1002/wcms.81
  2. Neese,F.
     Software update: the ORCA program system, version 4.0
     WIRES Comput. Molec. Sci., 2018 8(1)1-6
     doi.org/10.1002/wcms.1327
  3. Neese,F.; Wennmohs,F.; Becker,U.; Riplinger,C.
     The ORCA quantum chemistry program package
     J. Chem. Phys., 2020 152 Art. No. L224108
     doi.org/10.1063/5.0004608

List of optional additional citations

  1. Neese,F.
     Approximate second-order SCF convergence for spin unrestricted wavefunctions
     Chem. Phys. Lett., 2000 325(1-3)93-98
     doi.org/10.1016/s0009-2614(00)00662-x

Timings for individual modules:

Sum of individual times          ...       69.574 sec (=   1.160 min)
Startup calculation              ...        2.479 sec (=   0.041 min)   3.6 %
SCF iterations                   ...       11.754 sec (=   0.196 min)  16.9 %
Property integrals               ...        0.336 sec (=   0.006 min)   0.5 %
Property calculations            ...        0.323 sec (=   0.005 min)   0.5 %
MDCI module                      ...       54.683 sec (=   0.911 min)  78.6 %
                             ****ORCA TERMINATED NORMALLY****
TOTAL RUN TIME: 0 days 0 hours 1 minutes 9 seconds 953 msec
