
                                 *****************
                                 * O   R   C   A *
                                 *****************

                                            #,                                       
                                            ###                                      
                                            ####                                     
                                            #####                                    
                                            ######                                   
                                           ########,                                 
                                     ,,################,,,,,                         
                               ,,#################################,,                 
                          ,,##########################################,,             
                       ,#########################################, ''#####,          
                    ,#############################################,,   '####,        
                  ,##################################################,,,,####,       
                ,###########''''           ''''###############################       
              ,#####''   ,,,,##########,,,,          '''####'''          '####       
            ,##' ,,,,###########################,,,                        '##       
           ' ,,###''''                  '''############,,,                           
         ,,##''                                '''############,,,,        ,,,,,,###''
      ,#''                                            '''#######################'''  
     '                                                          ''''####''''         
             ,#######,   #######,   ,#######,      ##                                
            ,#'     '#,  ##    ##  ,#'     '#,    #''#        ,####,   ,####,        
            ##       ##  ##   ,#'  ##            #'  '#       #'       #'  '#        
            ##       ##  #######   ##           ,######,      #####,   #    #        
            '#,     ,#'  ##    ##  '#,     ,#' ,#      #,     #,   #   #,  ,#        
             '#######'   ##     ##  '#######'  #'      '#     '####' # '####'        



                #########################################################
                #                        -***-                          #
                #          Department of theory and spectroscopy        #
                #                                                       #
                #                      Frank Neese                      #
                #                                                       #
                #     Directorship, Architecture, Infrastructure        #
                #                    SHARK, DRIVERS                     #
                #        Core code/Algorithms in most modules           #
                #                                                       #
                #        Max Planck Institute fuer Kohlenforschung      #
                #                Kaiser Wilhelm Platz 1                 #
                #                 D-45470 Muelheim/Ruhr                 #
                #                      Germany                          #
                #                                                       #
                #                  All rights reserved                  #
                #                        -***-                          #
                #########################################################


                         Program Version 6.0.0  -   RELEASE  -


 With contributions from (in alphabetic order):
   Daniel Aravena         : Magnetic Suceptibility
   Michael Atanasov       : Ab Initio Ligand Field Theory (pilot matlab implementation)
   Alexander A. Auer      : GIAO ZORA, VPT2 properties, NMR spectrum
   Ute Becker             : All parallelization in ORCA, NUMFREQ, NUMCALC
   Giovanni Bistoni       : ED, misc. LED, open-shell LED, HFLD
   Martin Brehm           : Molecular dynamics
   Dmytro Bykov           : pre 5.0 version of the SCF Hessian
   Marcos Casanova-Páez   : Triplet and SCS-CIS(D). UHF-(DLPNO)-IP/EA/STEOM-CCSD. UHF-CVS-IP/STEOM-CCSD
   Vijay G. Chilkuri      : MRCI spin determinant printing, contributions to CSF-ICE
   Pauline Colinet        : FMM embedding
   Dipayan Datta          : RHF DLPNO-CCSD density
   Achintya Kumar Dutta   : EOM-CC, STEOM-CC
   Nicolas Foglia         : Exact transition moments, OPA infrastructure, MCD improvements
   Dmitry Ganyushin       : Spin-Orbit,Spin-Spin,Magnetic field MRCI
   Miquel Garcia          : C-PCM and meta-GGA Hessian, CCSD/C-PCM, Gaussian charge scheme
   Tiago L. C. Gouveia    : GS-ROHF, GS-ROCIS
   Yang Guo               : DLPNO-NEVPT2, F12-NEVPT2, CIM, IAO-localization
   Andreas Hansen         : Spin unrestricted coupled pair/coupled cluster methods
   Ingolf Harden          : AUTO-CI MPn and infrastructure 
   Benjamin Helmich-Paris : MC-RPA, TRAH-(SCF,CASSCF), AVAS, COSX integrals, SCF dyn. polar.
   Lee Huntington         : MR-EOM, pCC
   Robert Izsak           : Overlap fitted RIJCOSX, COSX-SCS-MP3, EOM
   Riya Kayal             : Wick's Theorem for AUTO-CI, AUTO-CI UHF-CCSDT
   Emily Kempfer          : AUTO-CI, RHF CISDT and CCSDT
   Christian Kollmar      : KDIIS, OOCD, Brueckner-CCSD(T), CCSD density, CASPT2, CASPT2-K, improved NEVPT2
   Axel Koslowski         : Symmetry handling
   Simone Kossmann        : Meta GGA functionals, TD-DFT gradient, OOMP2, (MP2 Hessian; deprecated post 5.0)
   Lucas Lang             : DCDCAS
   Marvin Lechner         : AUTO-CI (C++ implementation), FIC-MRCC
   Spencer Leger          : CASSCF response
   Dagmar Lenk            : GEPOL surface, SMD, ORCA-2-JSON
   Dimitrios Liakos       : Extrapolation schemes; Compound Job, initial MDCI parallelization
   Dimitrios Manganas     : Further ROCIS development; embedding schemes. LFT, Crystal Embedding
   Dimitrios Pantazis     : SARC Basis sets
   Anastasios Papadopoulos: AUTO-CI, single reference methods and gradients
   Taras Petrenko         : pre 6.0 DFT Hessian and TD-DFT gradient, (ASA, deprecated), ECA, 1-Electron XAS/XES, NRVS
   Peter Pinski           : DLPNO-MP2, DLPNO-MP2 Gradient
   Christoph Reimann      : Effective Core Potentials
   Marius Retegan         : Local ZFS, SOC
   Christoph Riplinger    : Optimizer, TS searches, QM/MM, DLPNO-CCSD(T), (RO)-DLPNO pert. Triples
   Michael Roemelt        : Original ROCIS implementation
   Masaaki Saitow         : Open-shell DLPNO-CCSD energy and density
   Barbara Sandhoefer     : DKH picture change effects
   Kantharuban Sivalingam : CASSCF convergence/infrastructure, NEVPT2 and variants, FIC-MRCI
   Bernardo de Souza      : ESD, SOC TD-DFT
   Georgi Stoychev        : AutoAux, RI-MP2 NMR, DLPNO-MP2 response, X2C
   Van Anh Tran           : RI-MP2 g-tensors
   Willem Van den Heuvel  : Paramagnetic NMR
   Zikuan Wang            : NOTCH, Electric field optimization 
   Frank Wennmohs         : Technical directorship and infrastructure
   Hang Xu                : AUTO-CI-Response properties 


 We gratefully acknowledge several colleagues who have allowed us to
 interface, adapt or use parts of their codes:
   Stefan Grimme, W. Hujo, H. Kruse, P. Pracht,  : VdW corrections, initial TS optimization,
                  C. Bannwarth, S. Ehlert,         DFT functionals, gCP, sTDA/sTD-DF
                  L. Wittmann, M. Mueller
   Ed Valeev, F. Pavosevic, A. Kumar             : LibInt (2-el integral package), F12 methods
   Garnet Chan, S. Sharma, J. Yang, R. Olivares  : DMRG
   Ulf Ekstrom                                   : XCFun DFT Library
   Mihaly Kallay                                 : mrcc  (arbitrary order and MRCC methods)
   Frank Weinhold                                : gennbo (NPA and NBO analysis)
   Simon Mueller                                 : openCOSMO-RS
   Christopher J. Cramer and Donald G. Truhlar   : smd solvation model
   Lars Goerigk                                  : TD-DFT with DH, B97 family of functionals
   V. Asgeirsson, H. Jonsson                     : NEB implementation
   FAccTs GmbH                                   : IRC, NEB, NEB-TS, DLPNO-Multilevel, CI-OPT
                                                   MM, QMMM, 2- and 3-layer-ONIOM, Crystal-QMMM,
                                                   LR-CPCM, SF, NACMEs, symmetry and pop. for TD-DFT,
                                                   nearIR, NL-DFT gradient (VV10), updates on ESD,
                                                   ML-optimized integration grids, MBIS, APM,
                                                   GOAT, DOCKER, SOLVATOR, interface openCOSMO-RS
   S Lehtola, MJT Oliveira, MAL Marques          : LibXC Library
   Liviu Ungur et al                             : ANISO software


 Your calculation uses the libint2 library for the computation of 2-el integrals
 For citations please refer to: http://libint.valeyev.net

 Your ORCA version has been built with support for libXC version: 6.2.2
 For citations please refer to: https://libxc.gitlab.io

 This ORCA versions uses:
   CBLAS   interface :  Fast vector & matrix operations
   LAPACKE interface :  Fast linear algebra routines
   SCALAPACK package :  Parallel linear algebra routines
   Shared memory     :  Shared parallel matrices
   BLAS/LAPACK       :  OpenBLAS 0.3.27  USE64BITINT DYNAMIC_ARCH NO_AFFINITY Haswell SINGLE_THREADED
        Core in use  :  Haswell
   Copyright (c) 2011-2014, The OpenBLAS Project


NOTE: MaxCore=6000 MB was set to SCF,MP2,MDCI,CIPSI,MRCI and CIS
      => If you want to overwrite this, your respective input block should be placed after the MaxCore statement
================================================================================

----- Orbital basis set information -----
Your calculation utilizes the basis: cc-pVTZ 
       H, B-Ne : Obtained from the ccRepo (grant-hill.group.shef.ac.uk/ccrepo) Feb. 2017
                 T. H. Dunning, Jr., J. Chem. Phys. 90, 1007 (1989)
            He : Obtained from the ccRepo (grant-hill.group.shef.ac.uk/ccrepo) Feb. 2017
                 D. E. Woon, T. H. Dunning, Jr., J. Chem. Phys. 100, 2975 (1994)
  Li-Be, Na-Mg : Obtained from the ccRepo (grant-hill.group.shef.ac.uk/ccrepo) Feb. 2017
                 B. P. Prascher, D. E. Woon, K. A. Peterson, T. H. Dunning, Jr., A. K. Wilson, Theor. Chem. Acc. 128, 69 (2011)
         Al-Ar : Obtained from the ccRepo (grant-hill.group.shef.ac.uk/ccrepo) Feb. 2017
                 D. E. Woon, T. H. Dunning, Jr., J. Chem. Phys. 98, 1358 (1993)
            Ca : Obtained from the Peterson Research Group Website (tyr0.chem.wsu.edu/~kipeters) Feb. 2017
                 J. Koput, K. A. Peterson, J. Phys. Chem. 106, 9595 (2002)
         Sc-Zn : Obtained from the ccRepo (grant-hill.group.shef.ac.uk/ccrepo) Feb. 2017
                 N. B. Balabanov, K. A. Peterson, J. Chem. Phys. 123, 064107 (2005)
                 N. B. Balabanov, K. A. Peterson, J. Chem. Phys. 125, 074110 (2006)
         Ga-Kr : Obtained from the ccRepo (grant-hill.group.shef.ac.uk/ccrepo) Feb. 2017
                 A. K. Wilson, D. E. Woon, K. A. Peterson, T. H. Dunning, Jr., J. Chem. Phys. 110, 7667 (1999)
             Y : Obtained from the ccRepo (grant-hill.group.shef.ac.uk/ccrepo) Feb. 2017
                 K. A. Peterson, D. Figgen, M. Dolg, H. Stoll, J. Chem. Phys. 126, 124101 (2007)
        Ag, Au : Obtained from the Peterson Research Group Website (tyr0.chem.wsu.edu/~kipeters) Feb. 2017
                 K. A. Peterson, C. Puzzarini, Theor. Chem. Acc. 114, 283 (2005)

----- AuxC basis set information -----
Your calculation utilizes the auxiliary basis: cc-pVTZ/C 
  Obtained from the EMSL Basis Set Exchange (bse.pnl.gov) Feb. 2017
  H-He, B-F, Al-Ar, Ga-Kr : F. Weigend, A. Kohn, C. Hattig, J. Chem. Phys. 116, 3175 (2002)
             Li-Be, Na-Mg : C. Haettig, Phys. Chem. Chem. Phys. 7, 59 (2005)
                       Ne : C. Haettig, Phys. Chem. Chem. Phys. 7, 59 (2005)
                            F. Weigend, A. Kohn, C. Hattig, J. Chem. Phys. 116, 3175 (2002)
                    Sc-Zn : J. G. Hill, J. A. Platts, J. Chem. Phys. 128, 044104 (2008)

----- AuxJK basis set information -----
Your calculation utilizes the auxiliary basis: cc-pVTZ/JK 
  H, B-F, Al-Cl, Ga-Br : Obtained from the TURBOMOLE 7.0 basis set library

================================================================================
                                        WARNINGS
                       Please study these warnings very carefully!
================================================================================


WARNING: Post HF methods need fully converged wavefunctions
  ===> : Setting SCFConvForced true
         You can overwrite this default with %scf ConvForced false 


WARNING: MDCI localization with Augmented Hessian Foster-Boys
  ===> : Switching off randomization!

================================================================================
                                       INPUT FILE
================================================================================
NAME = sp.inp
|  1> %maxcore  6000
|  2> %pal nprocs 8 end
|  3> ! DLPNO-CCSD(T) normalPNO RIJK cc-pVTZ cc-pVTZ/JK cc-pVTZ/C tightSCF noautostart miniprint nopop
|  4> %method
|  5> end
|  6> * xyz   0   1
|  7> O      -1.502169000e+00  -1.913590000e-01   1.434927000e+00
|  8> H      -2.006698000e+00  -4.223270000e-01   2.219847000e+00
|  9> H      -6.010540000e-01  -5.969720000e-01   1.553718000e+00
| 10> O      -1.744575000e+00  -3.823480000e-01  -1.309144000e+00
| 11> H      -2.516835000e+00  -7.667650000e-01  -1.733766000e+00
| 12> H      -1.888941000e+00  -4.796530000e-01  -3.476240000e-01
| 13> O      -5.604090000e-01   2.017830000e+00  -1.219840000e-01
| 14> H      -9.898310000e-01   1.592736000e+00  -8.774190000e-01
| 15> H      -9.477200000e-01   1.533567000e+00   6.252280000e-01
| 16> O       9.648030000e-01  -1.165765000e+00   1.439987000e+00
| 17> H       1.542224000e+00  -3.936920000e-01   1.344373000e+00
| 18> H       9.795570000e-01  -1.522041000e+00   5.278330000e-01
| 19> O       9.747050000e-01  -1.401503000e+00  -1.335970000e+00
| 20> H       1.470709000e+00  -5.709330000e-01  -1.277710000e+00
| 21> H       6.516100000e-02  -1.118951000e+00  -1.522886000e+00
| 22> O       2.002280000e+00   1.057824000e+00  -1.245020000e-01
| 23> H       2.674716000e+00   1.735342000e+00  -2.379950000e-01
| 24> H       1.141637000e+00   1.532266000e+00  -1.401210000e-01
| 25>  *
| 26> 
| 27>                          ****END OF INPUT****
================================================================================

                       ****************************
                       * Single Point Calculation *
                       ****************************

---------------------------------
CARTESIAN COORDINATES (ANGSTROEM)
---------------------------------
  O     -1.502169   -0.191359    1.434927
  H     -2.006698   -0.422327    2.219847
  H     -0.601054   -0.596972    1.553718
  O     -1.744575   -0.382348   -1.309144
  H     -2.516835   -0.766765   -1.733766
  H     -1.888941   -0.479653   -0.347624
  O     -0.560409    2.017830   -0.121984
  H     -0.989831    1.592736   -0.877419
  H     -0.947720    1.533567    0.625228
  O      0.964803   -1.165765    1.439987
  H      1.542224   -0.393692    1.344373
  H      0.979557   -1.522041    0.527833
  O      0.974705   -1.401503   -1.335970
  H      1.470709   -0.570933   -1.277710
  H      0.065161   -1.118951   -1.522886
  O      2.002280    1.057824   -0.124502
  H      2.674716    1.735342   -0.237995
  H      1.141637    1.532266   -0.140121

----------------------------
CARTESIAN COORDINATES (A.U.)
----------------------------
  NO LB      ZA    FRAG     MASS         X           Y           Z
   0 O     8.0000    0    15.999   -2.838688   -0.361616    2.711619
   1 H     1.0000    0     1.008   -3.792110   -0.798082    4.194903
   2 H     1.0000    0     1.008   -1.135827   -1.128114    2.936102
   3 O     8.0000    0    15.999   -3.296769   -0.722533   -2.473924
   4 H     1.0000    0     1.008   -4.756129   -1.448976   -3.276343
   5 H     1.0000    0     1.008   -3.569581   -0.906413   -0.656914
   6 O     8.0000    0    15.999   -1.059020    3.813146   -0.230516
   7 H     1.0000    0     1.008   -1.870510    3.009835   -1.658082
   8 H     1.0000    0     1.008   -1.790931    2.898022    1.181510
   9 O     8.0000    0    15.999    1.823213   -2.202977    2.721181
  10 H     1.0000    0     1.008    2.914381   -0.743970    2.540497
  11 H     1.0000    0     1.008    1.851094   -2.876241    0.997460
  12 O     8.0000    0    15.999    1.841926   -2.648457   -2.524617
  13 H     1.0000    0     1.008    2.779237   -1.078907   -2.414522
  14 H     1.0000    0     1.008    0.123136   -2.114511   -2.877837
  15 O     8.0000    0    15.999    3.783761    1.998998   -0.235275
  16 H     1.0000    0     1.008    5.054481    3.279321   -0.449745
  17 H     1.0000    0     1.008    2.157381    2.895563   -0.264790



           ************************************************************
           *        Program running with 8 parallel MPI-processes     *
           *              working on a common directory               *
           ************************************************************
------------------------------------------------------------------------------
                   ___                                                        
                  /   \      - P O W E R E D   B Y -                         
                 /     \                                                     
                 |  |  |   _    _      __       _____    __    __             
                 |  |  |  | |  | |    /  \     |  _  \  |  |  /  |          
                  \  \/   | |  | |   /    \    | | | |  |  | /  /          
                 / \  \   | |__| |  /  /\  \   | |_| |  |  |/  /          
                |  |  |   |  __  | /  /__\  \  |    /   |      \           
                |  |  |   | |  | | |   __   |  |    \   |  |\   \          
                \     /   | |  | | |  |  |  |  | |\  \  |  | \   \       
                 \___/    |_|  |_| |__|  |__|  |_| \__\ |__|  \__/        
                                                                              
                      - O R C A' S   B I G   F R I E N D -                    
                                      &                                       
                       - I N T E G R A L  F E E D E R -                       
                                                                              
 v1 FN, 2020, v2 2021, v3 2022-2024                                           
------------------------------------------------------------------------------


----------------------
SHARK INTEGRAL PACKAGE
----------------------

Number of atoms                             ...     18
Number of basis functions                   ...    384
Number of shells                            ...    168
Maximum angular momentum                    ...      3
Integral batch strategy                     ... SHARK/LIBINT Hybrid
RI-J (if used) integral strategy            ... SPLIT-RIJ (Revised 2003 algorithm where possible)
Printlevel                                  ...      1
Contraction scheme used                     ... PARTIAL GENERAL contraction
Prescreening option                         ... SCHWARTZ
   Thresh                                   ... 2.500e-11
   Tcut                                     ... 2.500e-12
   Tpresel                                  ... 2.500e-12 
Coulomb Range Separation                    ... NOT USED
Exchange Range Separation                   ... NOT USED
Multipole approximations                    ... NOT USED
Finite Nucleus Model                        ... NOT USED
CABS basis                                  ... NOT available
Auxiliary Coulomb fitting basis             ... NOT available
Auxiliary J/K fitting basis                 ... AVAILABLE
   # of basis functions in Aux-JK           ...    834
   # of shells in Aux-JK                    ...    270
   Maximum angular momentum in Aux-JK       ...      4
Auxiliary Correlation fitting basis         ... AVAILABLE
   # of basis functions in Aux-C            ...    846
   # of shells in Aux-C                     ...    258
   Maximum angular momentum in Aux-C        ...      4
Auxiliary 'external' fitting basis          ... NOT available

Checking pre-screening integrals            ... done (  0.0 sec) Dimension = 168
Save PGC pre-screening integrals            ... done (  0.0 sec) Dimension = 168
Calculate PGC overlap integrals             ... done (  0.0 sec) Dimension = 132
Calculating pre-screening integrals (ORCA)  ... done (  0.1 sec) Dimension = 132
Check shell pair data                       ... done (  0.0 sec)
Shell pair information
Shell pair cut-off parameter TPreSel        ...   2.5e-12
Total number of shell pairs                 ...     14196
Shell pairs after pre-screening             ...     10482
Total number of primitive shell pairs       ...     20964
Primitive shell pairs kept                  ...     13621
          la=0 lb=0:   3144 shell pairs
          la=1 lb=0:   3154 shell pairs
          la=1 lb=1:    801 shell pairs
          la=2 lb=0:   1543 shell pairs
          la=2 lb=1:    877 shell pairs
          la=2 lb=2:    257 shell pairs
          la=3 lb=0:    347 shell pairs
          la=3 lb=1:    223 shell pairs
          la=3 lb=2:    121 shell pairs
          la=3 lb=3:     15 shell pairs

Calculating one electron integrals          ... done (  0.0 sec)
Calculating RI/JK V-Matrix + Cholesky decomp... done (  0.0 sec)
Calculating RI/C V-Matrix + Cholesky decomp.... done (  0.0 sec)
Calculating Nuclear repulsion               ... done (  0.0 sec) ENN=    304.909314026963 Eh

Diagonalization of the overlap matrix:
Smallest eigenvalue                        ... 1.348e-03
Time for diagonalization                   ...    0.019 sec
Threshold for overlap eigenvalues          ... 1.000e-07
Number of eigenvalues below threshold      ... 0
Time for construction of square roots      ...    0.009 sec
Total time needed                          ...    0.031 sec

-------------------
DFT GRID GENERATION
-------------------

General Integration Accuracy     IntAcc      ... 4.388
Radial Grid Type                 RadialGrid  ... OptM3 with GC (2021)
Angular Grid (max. ang.)         AngularGrid ... 4 (Lebedev-302)
Angular grid pruning method      GridPruning ... 4 (adaptive)
Weight generation scheme         WeightScheme... mBecke (2022)
Basis function cutoff            BFCut       ... 1.0000e-11
Integration weight cutoff        WCut        ... 1.0000e-14
Partially contracted basis set               ... off
Rotationally invariant grid construction     ... off
Angular grids for H and He will be reduced by one unit

Total number of grid points                  ...    75334
Total number of batches                      ...     1185
Average number of points per batch           ...       63
Average number of grid points per atom       ...     4185

---------------------
SHARK GRID GENERATION
---------------------

General Integration Accuracy     IntAcc      ... 4.388
Radial Grid Type                 RadialGrid  ... OptM3 with GC (2021)
Angular Grid (max. ang.)         AngularGrid ... 4 (Lebedev-302)
Angular grid pruning method      GridPruning ... 4 (adaptive)
Weight generation scheme         WeightScheme... mBecke (2022)
Basis function cutoff            BFCut       ... 1.0000e-11
Integration weight cutoff        WCut        ... 1.0000e-14
Partially contracted basis set               ... off
Rotationally invariant grid construction     ... off
Angular grids for H and He will be reduced by one unit
Steep s-basis detected: some atoms will have their radial
                        grid points doubled.

Total number of grid points                  ...   112330
Total number of batches                      ...     1764
Average number of points per batch           ...       63
Average number of grid points per atom       ...     6241
Initializing property integral containers    ... done (  0.0 sec)

SHARK setup successfully completed in   2.3 seconds

Maximum memory used throughout the entire STARTUP-calculation: 36.9 MB


           ************************************************************
           *        Program running with 8 parallel MPI-processes     *
           *              working on a common directory               *
           ************************************************************
Loading Hartree-Fock densities                     ... done
Calculating cut-offs                               ... done
Initializing the effective Hamiltonian             ... done
Setting up the integral package (SHARK)            ... done
Starting the Coulomb interaction                   ... done (   0.1 sec)
Making the grid                                    ... done (   0.2 sec)
Mapping shells                                     ... done
Starting the XC term evaluation                    ... done (   0.0 sec)
Transforming the Hamiltonian                       ... done (   0.0 sec)
Diagonalizing the Hamiltonian                      ... done (   0.0 sec)
Back transforming the eigenvectors                 ... done (   0.0 sec)
Now organizing SCF variables                       ... done
             **** ENERGY FILE WAS UPDATED (sp.en.tmp) ****
Finished Guess after   0.5 sec
Maximum memory used throughout the entire GUESS-calculation: 20.5 MB


           ************************************************************
           *        Program running with 8 parallel MPI-processes     *
           *              working on a common directory               *
           ************************************************************
----------------------------------------D-I-I-S--------------------------------------------
Iteration    Energy (Eh)           Delta-E    RMSDP     MaxDP     DIISErr   Damp  Time(sec)
-------------------------------------------------------------------------------------------
    1    -455.9015654730878282     0.00e+00  9.45e-04  4.11e-02  3.53e-01  0.700   0.8
    2    -455.3714471811758244     5.30e-01  1.05e-03  4.99e-02  3.29e-01  0.700   0.8
                               ***Turning on AO-DIIS***
    3    -455.4244876625705842    -5.30e-02  7.85e-04  3.65e-02  1.89e-01  0.700   0.8
    4    -455.7613055086778218    -3.37e-01  2.59e-04  1.05e-02  8.53e-02  0.700   0.8
    5    -456.1914626691997796    -4.30e-01  5.36e-04  2.15e-02  4.96e-02  0.000   0.8
    6    -456.3884219563772717    -1.97e-01  1.65e-04  9.38e-03  3.48e-02  0.000   0.8
    7    -456.3924230845366878    -4.00e-03  1.30e-04  6.78e-03  2.69e-02  0.000   0.8
    8    -456.3950209780018099    -2.60e-03  1.00e-04  4.34e-03  1.67e-02  0.000   0.8
    9    -456.3961751913953435    -1.15e-03  9.01e-05  4.39e-03  8.57e-03  0.000   0.8
                              *** Initializing SOSCF ***
---------------------------------------S-O-S-C-F--------------------------------------
Iteration    Energy (Eh)           Delta-E    RMSDP     MaxDP     MaxGrad    Time(sec)
--------------------------------------------------------------------------------------
   10    -456.3965282127714431    -3.53e-04  1.25e-05  6.94e-04  6.34e-04     0.8
   11    -456.3965327656628119    -4.55e-06  5.67e-06  1.59e-04  6.84e-05     0.8
   12    -456.3965334677509986    -7.02e-07  3.68e-06  1.06e-04  3.31e-05     0.8
   13    -456.3965335935474172    -1.26e-07  6.26e-07  3.06e-05  9.07e-06     0.8
   14    -456.3965336033358540    -9.79e-09  1.70e-07  5.07e-06  3.56e-06     0.8
                 **** Energy Check signals convergence ****

               *****************************************************
               *                     SUCCESS                       *
               *           SCF CONVERGED AFTER  14 CYCLES          *
               *****************************************************

             **** ENERGY FILE WAS UPDATED (sp.en.tmp) ****

----------------
TOTAL SCF ENERGY
----------------

Total Energy       :       -456.39653360333585 Eh          -12419.18106 eV

Components:
Nuclear Repulsion  :        304.90931402696270 Eh            8297.00425 eV
Electronic Energy  :       -761.30584763029856 Eh          -20716.18530 eV
One Electron Energy:      -1238.02898638806914 Eh          -33688.48141 eV
Two Electron Energy:        476.72313875777058 Eh           12972.29610 eV

Virial components:
Potential Energy   :       -912.27712315725807 Eh          -24824.32257 eV
Kinetic Energy     :        455.88058955392216 Eh           12405.14151 eV
Virial Ratio       :          2.00113175261513

---------------
SCF CONVERGENCE
---------------

  Last Energy change         ...    9.7884e-09  Tolerance :   1.0000e-08
  Last MAX-Density change    ...    5.0714e-06  Tolerance :   1.0000e-07
  Last RMS-Density change    ...    1.7029e-07  Tolerance :   5.0000e-09
  Last DIIS Error            ...    6.3408e-04  Tolerance :   5.0000e-07
  Last Orbital Gradient      ...    3.5649e-06  Tolerance :   1.0000e-05
  Last Orbital Rotation      ...    2.6871e-06  Tolerance :   1.0000e-05


----------------
ORBITAL ENERGIES
----------------

  NO   OCC          E(Eh)            E(eV) 
   0   2.0000     -20.573944      -559.8455 
   1   2.0000     -20.568971      -559.7102 
   2   2.0000     -20.557966      -559.4107 
   3   2.0000     -20.557559      -559.3996 
   4   2.0000     -20.547049      -559.1136 
   5   2.0000     -20.537342      -558.8495 
   6   2.0000      -1.371902       -37.3314 
   7   2.0000      -1.356961       -36.9248 
   8   2.0000      -1.353196       -36.8223 
   9   2.0000      -1.343932       -36.5703 
  10   2.0000      -1.333377       -36.2830 
  11   2.0000      -1.322117       -35.9766 
  12   2.0000      -0.744379       -20.2556 
  13   2.0000      -0.727920       -19.8077 
  14   2.0000      -0.721336       -19.6286 
  15   2.0000      -0.707181       -19.2434 
  16   2.0000      -0.697259       -18.9734 
  17   2.0000      -0.693558       -18.8727 
  18   2.0000      -0.624707       -16.9992 
  19   2.0000      -0.617618       -16.8062 
  20   2.0000      -0.594716       -16.1831 
  21   2.0000      -0.583518       -15.8783 
  22   2.0000      -0.574620       -15.6362 
  23   2.0000      -0.548899       -14.9363 
  24   2.0000      -0.520971       -14.1764 
  25   2.0000      -0.519617       -14.1395 
  26   2.0000      -0.508359       -13.8331 
  27   2.0000      -0.504864       -13.7380 
  28   2.0000      -0.496370       -13.5069 
  29   2.0000      -0.481144       -13.0926 
  30   0.0000       0.123403         3.3580 
  31   0.0000       0.152240         4.1427 
  32   0.0000       0.158579         4.3151 
  33   0.0000       0.219186         5.9643 
  34   0.0000       0.229087         6.2338 
  35   0.0000       0.246438         6.7059 
  36   0.0000       0.284008         7.7282 
  37   0.0000       0.288175         7.8416 
  38   0.0000       0.308642         8.3986 
  39   0.0000       0.324174         8.8212 
  40   0.0000       0.336592         9.1591 
*Only the first 10 virtual orbitals were printed.
Total SCF time: 0 days 0 hours 0 min 11 sec 
Finished LeanSCF after  11.4 sec

Maximum memory used throughout the entire LEANSCF-calculation: 42.3 MB


           ************************************************************
           *        Program running with 8 parallel MPI-processes     *
           *              working on a common directory               *
           ************************************************************

------------------------------------------------------------------------------
                         ORCA PROPERTY INTEGRAL CALCULATIONS
------------------------------------------------------------------------------

GBWName                                   ... sp.gbw
Number of atoms                           ...     18
Number of basis functions                 ...    384
Max core memory                           ...   6000 MB

Dipole integrals                          ... YES
Quadrupole integrals                      ...  NO
Linear momentum integrals                 ... YES
Angular momentum integrals                ... YES
Higher moments length integrals           ...  NO
Higher moments velocity integrals         ...  NO
Kinetic energy integrals                  ...  NO
GIAO right hand sides                     ...  NO
GIAO dipole derivative integrals          ...  NO
SOC integrals                             ...  NO
EPR diamagnetic integrals (GIAO)          ...  NO
EPR gauge integrals                       ...  NO
Field gradient integrals                  ...  NO (   0 nuclei)
Spin-dipole/Fermi contact integrals       ...  NO (   0 nuclei)
Contact density integrals                 ...  NO (   0 nuclei)
Nucleus-orbit integrals                   ...  NO (   0 nuclei)
Geometric perturbations                   ...  NO (  18 nuclei)

Choice of electric origin   ... Center of mass
Position of electric origin ... (  0.0187, -0.0091, -0.0023) 
Choice of magnetic origin   ... GIAO
Position of magnetic origin ... (  0.0000,  0.0000,  0.0000) 

Calculating integrals                     ... Electric Dipole (Length)     done (  0.0 sec)
Calculating integrals                     ... Linear Momentum              done (  0.0 sec)
Calculating integrals                     ... Angular Momentum  (ElOri)    done (  0.0 sec)

Property integrals calculated in   0.1 sec

Maximum memory used throughout the entire PROPINT-calculation: 21.0 MB


           ************************************************************
           *        Program running with 8 parallel MPI-processes     *
           *              working on a common directory               *
           ************************************************************


--------------------------------------------------------------------------------
                             ORCA-MATRIX DRIVEN CI
--------------------------------------------------------------------------------


Wavefunction type
-----------------
Correlation treatment                      ...      CCSD     
Single excitations                         ... ON
Orbital optimization                       ... OFF
Calculation of Z vector                    ... OFF
Calculation of Brueckner orbitals          ... OFF
Perturbative triple excitations            ... ON
Calculation of F12 correction              ... OFF
Frozen core treatment                      ... chemical core (12 el)
Reference Wavefunction                     ... RHF
  Internal Orbitals:     6 ...   29 ( 24 MO's/ 48 electrons)
  Virtual  Orbitals:    30 ...  347 (318 MO's              )
Number of AO's                             ...    348
Number of electrons                        ...     60
Number of correlated electrons             ...     48

Algorithmic settings
--------------------
Integral transformation                    ... All integrals via the RI transformation
K(C) Formation                             ... RI-DLPNO
   PNO-Integral Storage                    ... ON DISK
   PNO occupation number cut-off           ... 3.330e-07
   Singles PNO occupation number cut-off   ... 9.990e-09
   PNO Mulliken prescreening cut-off       ... 1.000e-03
   Domain cut-off (Mulliken population)    ... 1.000e-03
   PNO Normalization                       ...    1
Maximum number of iterations               ...        50
Convergence tolerance (max. residuum)      ... 1.000e-05
Level shift for amplitude update           ... 2.000e-01
Maximum number of DIIS vectors             ...         7
DIIS turned on at iteration                ...         0
Damping before turning on DIIS             ...     0.500
Damping after turning on DIIS              ...     0.000
Pair specific amplitude update             ... OFF
Natural orbital iterations                 ... OFF
Perturbative natural orbital generation    ... OFF
Printlevel                                 ... 2

Singles Fock matrix elements calculated using PNOs.

Memory handling:
----------------
Maximum memory for working arrays          ...   6000 MB
Data storage in matrix containers          ... UNCOMPRESSED
Data type for integral storage             ... DOUBLE
In-Core Storage of quantities:
   Amplitudes+Sigma Vector      ... NO
   J+K operators                ... NO
   DIIS vectors                 ... NO
   3-external integrals         ... NO
   4-external integrals         ... NO

Localization treatment:
-----------------------
Localization option                        ...    6
Localization threshhold                    ... -1.0e+00
Using relative localization threshhold     ... 1.0e-08
Neglect threshold for strong pairs         ... 1.000e-04 Eh
Prescreening threshold for very weak pairs ... 1.000e-06 Eh

Initializing the integral package          ... done
Localizing the valence orbitals
Localizing the valence orbitals
------------------------------------------------------------------------------
                           ORCA ORBITAL LOCALIZATION
------------------------------------------------------------------------------

Input orbitals are from                  ... sp.gbw
Output orbitals are to                   ... sp.loc
Max. number of iterations                ... 128
Localizations seeded randomly            ... off
Convergence tolerance                    ... 1.000e-06
Using relative localization threshhold   ... 1.000e-08
Threshold for strong local MOs           ... 9.500e-01
Threshold for bond MOs                   ... 8.500e-01
Operator                                 ... 0
Orbital range for localization           ... 6 to 29
Localization criterion                   ... FOSTER-BOYS (AUGMENTED HESSIAN)
Doing the dipole integrals     ... o.k.
Initial value of the localization sum :   394.637119
ITERATION   0 : L=  407.8098004257 DL=  1.32e+01 (AVERGE_DL)=    0.2184653410 
ITERATION   1 : L=  409.2281928138 DL=  1.42e+00 (AVERGE_DL)=    0.0716875363 
ITERATION   2 : L=  409.5760322913 DL=  3.48e-01 (AVERGE_DL)=    0.0355005347 
ITERATION   3 : L=  409.6209906245 DL=  4.50e-02 (AVERGE_DL)=    0.0127629351 
ITERATION   4 : L=  409.6249277387 DL=  3.94e-03 (AVERGE_DL)=    0.0037768911 
ITERATION   5 : L=  409.6252745048 DL=  3.47e-04 (AVERGE_DL)=    0.0011208920 
ITERATION   6 : L=  409.6253029264 DL=  2.84e-05 (AVERGE_DL)=    0.0003209002 
ITERATION   7 : L=  409.6253051936 DL=  2.27e-06 (AVERGE_DL)=    0.0000906345 
ITERATION   8 : L=  409.6253053692 DL=  1.76e-07 (AVERGE_DL)=    0.0000252196 
LOCALIZATION SUM CONVERGED

------------------------------------------------------
AUGMENTED HESSIAN OPTIMIZATION OF FOSTER-BOYS ORBITALS
------------------------------------------------------

Spin operator:           0
Orbital window:          6 to 29
Number of iterations:    128
Gradient tolerance:      1.000e-06
Number of pairs:         276
Davidson threshold:      2000
Diagonalization method:  LAPACK
Iter:    0   L: 409.6253053692   Grad. norm: 1.852124e-03
   *** Likely close to a maximum now. ***
       Augmented Hessian eigenvalues:  4.74e-08 -1.38e+00 -1.40e+00 -1.41e+00 ... 
Iter:    1   L: 409.6253053929   Grad. norm: 9.814399e-09
LOCALIZATION HAS CONVERGED.

Eigenvalues of the Hessian:
  0 -1.381e+00
  1 -1.399e+00
  2 -1.413e+00
  3 -1.423e+00
  4 -1.465e+00
  5 -1.543e+00
  6 -3.068e+00
  7 -3.093e+00
  8 -3.105e+00
  9 -3.119e+00
    ...


--------------------------------------------------------------------------------
                    LOCALIZED MOLECULAR ORBITAL COMPOSITIONS
--------------------------------------------------------------------------------

The Mulliken populations for each LMO on each atom are computed
The LMO`s will be ordered according to atom index and type
  (A) Strongly localized MO`s have populations of >=0.950 on one atom
  (B) Two center bond orbitals have populations of >=0.850 on two atoms
  (C) Other MO`s are considered to be `delocalized`

FOUND  -  12 strongly local MO`s
       -  12 two center bond MO`s
       -   0 significantly delocalized MO`s

Rather strongly localized orbitals:
MO  17:  15O  -   0.991316
MO  16:  15O  -   0.990924
MO  15:  12O  -   0.981594
MO  14:  12O  -   0.975286
MO  13:   9O  -   0.975017
MO  12:   9O  -   0.970673
MO  11:   6O  -   0.976023
MO  10:   6O  -   0.981030
MO   9:   3O  -   0.991065
MO   8:   3O  -   0.991474
MO   7:   0O  -   0.985799
MO   6:   0O  -   0.988267
Bond-like localized orbitals:
MO  29:  17H  -   0.318696  and  15O  -   0.692227
MO  28:  16H  -   0.382011  and  15O  -   0.621710
MO  27:  14H  -   0.342286  and  12O  -   0.668907
MO  26:  13H  -   0.350465  and  12O  -   0.661989
MO  25:  11H  -   0.328993  and   9O  -   0.684026
MO  24:  10H  -   0.353648  and   9O  -   0.657548
MO  23:   8H  -   0.343947  and   6O  -   0.667830
MO  22:   7H  -   0.356161  and   6O  -   0.654886
MO  21:   5H  -   0.332355  and   3O  -   0.677962
MO  20:   4H  -   0.378885  and   3O  -   0.624447
MO  19:   2H  -   0.298347  and   0O  -   0.714117
MO  18:   1H  -   0.379873  and   0O  -   0.622920
Localized MO's were stored in: sp.loc

Localizing the core orbitals
------------------------------------------------------------------------------
                           ORCA ORBITAL LOCALIZATION
------------------------------------------------------------------------------

Input orbitals are from                  ... sp.loc
Output orbitals are to                   ... sp.loc
Max. number of iterations                ... 128
Localizations seeded randomly            ... off
Convergence tolerance                    ... 1.000e-06
Using relative localization threshhold   ... 1.000e-08
Threshold for strong local MOs           ... 9.500e-01
Threshold for bond MOs                   ... 8.500e-01
Operator                                 ... 0
Orbital range for localization           ... 0 to 5
Localization criterion                   ... FOSTER-BOYS (AUGMENTED HESSIAN)
Doing the dipole integrals     ... o.k.
Initial value of the localization sum :    99.487917
ITERATION   0 : L=   99.4879186536 DL=  1.23e-06 (AVERGE_DL)=    0.0002865995 
ITERATION   1 : L=   99.4879186536 DL=  0.00e+00 (AVERGE_DL)=    0.0000000000 
LOCALIZATION SUM CONVERGED

------------------------------------------------------
AUGMENTED HESSIAN OPTIMIZATION OF FOSTER-BOYS ORBITALS
------------------------------------------------------

Spin operator:           0
Orbital window:          0 to 5
Number of iterations:    128
Gradient tolerance:      1.000e-06
Number of pairs:         15
Davidson threshold:      2000
Diagonalization method:  LAPACK
Iter:    0   L: 99.4879186536   Grad. norm: 1.030881e-04
   *** Likely close to a maximum now. ***
       Augmented Hessian eigenvalues:  8.79e-11 -1.00e+02 -1.07e+02 -1.09e+02 ... 
Iter:    1   L: 99.4879186537   Grad. norm: 3.182092e-16
LOCALIZATION HAS CONVERGED.

Eigenvalues of the Hessian:
  0 -1.005e+02
  1 -1.070e+02
  2 -1.089e+02
  3 -1.109e+02
  4 -1.170e+02
  5 -1.205e+02
  6 -1.210e+02
  7 -1.224e+02
  8 -1.224e+02
  9 -2.128e+02
    ...


--------------------------------------------------------------------------------
                    LOCALIZED MOLECULAR ORBITAL COMPOSITIONS
--------------------------------------------------------------------------------

The Mulliken populations for each LMO on each atom are computed
The LMO`s will be ordered according to atom index and type
  (A) Strongly localized MO`s have populations of >=0.950 on one atom
  (B) Two center bond orbitals have populations of >=0.850 on two atoms
  (C) Other MO`s are considered to be `delocalized`

FOUND  -   6 strongly local MO`s
       -   0 two center bond MO`s
       -   0 significantly delocalized MO`s

Rather strongly localized orbitals:
MO   5:  15O  -   0.999730
MO   4:  12O  -   0.999839
MO   3:   9O  -   0.999854
MO   2:   6O  -   0.999854
MO   1:   3O  -   0.999762
MO   0:   0O  -   0.999758
Localized MO's were stored in: sp.loc

Warning: reference  - re-canonicalizations have been set to INT 1 VIRT 1
Warning: internal orbitals are localized - no re-canonicalization of internal orbitals
Warning: UsePNO is turned on - no re-canonicalization of internal and virtual orbitals
Fock densities were made 
Making Fock matrix and reference energy:

--------------------------
CLOSED-SHELL FOCK OPERATOR
--------------------------

Time needed for Fock operator              ...            1.195 sec
Reference energy                           ...   -456.396533604

--------------
DLPNO SETTINGS (2015 fully linear scaling implementation)
--------------

TCutMKN:           1.000e-03
TCutPAO:           1.000e-03
TCutPNO:           3.330e-07
TCutPNOSingles:    9.990e-09
TCutEN:            9.700e-01
TCutPAOExt:        1.000e-01
TCutPairs:         1.000e-04
TCutPre:           1.000e-06
TCutOSV:           1.000e-06
TCutDOij:          1.000e-05
TCutDO:            1.000e-02
TCutC:             1.000e-04
TCutCPAO:          1.000e-03
TCutCMO:           1.000e-03
TScaleDOMP2PreScr: 2.000e+00
TScaleMKNMP2PreScr:1.000e+01
TScalePNOMP2PreScr:1.000e+00
PAO overlap thresh 1.000e-08
Using PNOs for Singles Fock computation
Use new domains
Use fully linear algorithm
TCutTNO:           1.000e-09
TCutMP2Pairs:      1.000e-05
TCutDOStrong:      2.000e-02
TCutDOWeak:        4.000e-02
TCutMKNStrong:     1.000e-02
TCutMKNWeak:       1.000e-01
NTCutTNO:          1

--------------------------
Mulliken population of the LMOs            ... ok
Performing proximity check                 ... No problems found
Calculating differential overlap integrals ... ok

--------------------------
ELECTRON PAIR PRESCREENING
--------------------------

Dipole-based pair screening          .... used

   TCutDOij = 1.000000e-05
   TCutPre  = 1.000000e-06
   .... Finished loop over pairs
Total time spent in the prescreening                  ...     0.000 sec
sum of pair energies estimated for screened out pairs ...       0.000000000000 Eh
Thresholds for map construction and integral transformation for crude MP2:
   TCutMKN                    ...     1.0e-02
   TCutDO                     ...     2.0e-02
   TCutPairs                  ...     1.0e-04
   TCutPNO_CrudeMP2           ...     3.3e-07
   TCutPNOSingles_CrudeMP2    ...     1.0e-08
--------------------------------
LOCAL RI TRANSFORMATION (IAVPAO)
--------------------------------

Orbital window:       6 to 29
Number of PAOs:     348
Basis functions:    348 (132 shells)
Aux. functions:     846 (258 shells)
Use SHARK:           on
Have SHARK:         yes

Processing maps (0.0 sec)
Average map sizes:
   Aux shells -> MOs              24.0
   Aux shells -> PAOs            348.0
   MOs        -> AO shells       127.2
   PAOs       -> AO shells       131.8

Calculating integrals (0.6 sec, 53.917 MB)
Sorting integrals (0.1 sec, 53.908 MB)
Total time for the integral transformation: 0.8 sec
--------------------------------
INITIAL GUESS AND PNO GENERATION
--------------------------------

PNO truncation parameters                   .... 
    PAOOverlapThresh   =        1.000e-08

    TCutPairs          =        1.000e-04
    TCutPNO            =        3.330e-07
    TCutPNOSingles     =        9.990e-09
    TCutMP2Pairs       =        1.000e-05
    TCutMKN            =        1.000e-02
    TCutDO             =        2.000e-02

Pair selection                          .... not used
Type of local MP2 treatment                 .... semi-local MP2
Strategy for PNO selection                  .... occupation number selection
Pair density normalization                  .... MP2 norm
Spin component scaling                      .... not used

   .... Finished loop over pairs
Making pair pair interaction lists          ... done

                       ===========================
                        129 OF  300 PAIRS ARE KEPT CCSD PAIRS
                        148 OF  300 PAIRS ARE KEPT MP2 PAIRS FOR (T)
                         23 OF  300 PAIRS ARE SKIPPED
                       ===========================

Total time spent in the initial guess                 ...     1.765 sec
SL-MP2 correlation energy (all non-screened pairs)    ...      -1.556177862834 Eh

Initial PNO correlation energy                        ...      -1.548317057660 Eh
sum of pair energies prescreened and skipped MP2 pairs...      -0.000175211484 Eh
sum of pair energies of crude MP2 skipped pairs only  ...      -0.000175211484 Eh
sum of MP2 pair energies for pairs that were not kept ...      -0.006257124811 Eh
sum of PNO error estimates for the kept pairs         ...      -0.001603680363 Eh
                                                          --------------------
sum of all corrections                                         -0.007860805174
Initial total correlation energy                               -1.556177862834
Thresholds for map construction and integral transformation for fine MP2 and CCSD(T) calculation:
   TCutMKN   ...     1.0e-03
   TCutDO    ...     1.0e-02
   TCutPairs ...     1.0e-04
   TCutCMO   ...     1.0e-03
   TCutCPAO  ...     1.0e-03

Thresholds for map construction and integral transformation for strong Triples:
   TCutMKN   ...     1.0e-02
   TCutDO    ...     2.0e-02
   TCutCMO   ...     1.0e-03
   TCutCPAO  ...     1.0e-03

Thresholds for map construction and integral transformation for weak Triples:
   TCutMKN   ...     1.0e-01
   TCutDO    ...     4.0e-02
   TCutCMO   ...     1.0e-03
   TCutCPAO  ...     1.0e-03

--------------------------------
LOCAL RI TRANSFORMATION (IAVPAO)
--------------------------------

Orbital window:       6 to 29
Number of PAOs:     348
Basis functions:    348 (132 shells)
Aux. functions:     846 (258 shells)
Use SHARK:           on
Have SHARK:         yes

Processing maps (0.0 sec)
Average map sizes:
   Aux shells -> MOs              23.9
   Aux shells -> PAOs            348.0
   MOs        -> AO shells       127.2
   PAOs       -> AO shells       131.8

Calculating integrals (0.6 sec, 53.678 MB)
Sorting integrals (0.1 sec, 53.669 MB)
Total time for the integral transformation: 0.8 sec
--------------------------------
INITIAL GUESS AND PNO GENERATION
--------------------------------

PNO truncation parameters                   .... 
    PAOOverlapThresh   =        1.000e-08

    TCutPairs          =        1.000e-04
    TCutPNO            =        3.330e-07
    TCutPNOSingles     =        9.990e-09
    TCutMP2Pairs       =        1.000e-05
    TCutMKN            =        1.000e-03
    TCutDO             =        1.000e-02

Pair selection                          .... not used
Type of local MP2 treatment                 .... semi-local MP2
Strategy for PNO selection                  .... occupation number selection
Pair density normalization                  .... MP2 norm
Spin component scaling                      .... not used

   .... Finished loop over pairs

 PNO Occupation Number Statistics: 
  | Av. % of trace(Dij) retained        ...  97.966043087466
  | sigma^2 in % of trace(Dij) retained ...   2.95e+00
  | Av. % of trace(Di) retained         ...  99.999485686169
  | sigma^2 in % of trace(Di) retained  ...   2.14e-08
 Distributions of % trace(Dij) recovered:
  |       >= 99.9  ...    60 ( 21.7 % of all pairs)
  |   [80.0, 90.0) ...     1 (  0.4 % of all pairs)
  |   [90.0, 99.0) ...   199 ( 71.8 % of all pairs)
  |   [99.0, 99.9) ...    17 (  6.1 % of all pairs)
 Distributions of % trace(Di) recovered :
  |       >= 99.9  ...    24 (100.0 % of all I-pairs )

Making pair pair interaction lists          ... done

                       ===========================
                        129 OF  277 PAIRS ARE KEPT
                       ===========================

Total time spent in the initial guess                 ...     2.819 sec
SL-MP2 correlation energy (all non-screened pairs)    ...      -1.556360063771 Eh

Initial PNO correlation energy                        ...      -1.548619138252 Eh
sum of pair energies estimated for screened out pairs ...      -0.000175211484 Eh
sum of MP2 pair energies for pairs that were not kept ...      -0.006080287096 Eh
sum of PNO error estimates for the kept pairs         ...      -0.001660638423 Eh
                                                          --------------------
sum of all corrections                                         -0.007916137003
Initial total correlation energy                               -1.556535275255
Thresholds for map construction and integral transformation for fine MP2 and CCSD(T) calculation:
   TCutMKN   ...     1.0e-03
   TCutDO    ...     1.0e-02
   TCutPairs ...     1.0e-04
   TCutCMO   ...     1.0e-03
   TCutCPAO  ...     1.0e-03

Time for aux screen maps:            0.001
Time for maps after fine MP2:            0.007
-----------------------------
LOCAL RI TRANSFORMATION (IJV)
-----------------------------

Orbital window:       6 to 29
Basis functions:    348 (132 shells)
Aux. functions:     846 (258 shells)
Use SHARK:           on

Processing maps (0.0 sec)
Average map sizes:
   Aux shells -> MOs(i)           22.7
   Aux shells -> MOs(j)           24.0
   MOs        -> AO shells       127.2

Calculating integrals NOTE: Switching SHARK to General Contraction for MDCI
      If that is not desired please turn off the PGCFlag in the input (%shark PGCFlag 0 end)
(1.8 sec, 3.535 MB)
Sorting integrals (0.0 sec, 3.525 MB)
Total time for the integral transformation: 1.8 sec
--------------------------------
LOCAL RI TRANSFORMATION (VABPAO)
--------------------------------

Number of PAOs:     348
Basis functions:    348 (132 shells)
Aux. functions:     846 (258 shells)
Use SHARK:           on

Processing maps (0.0 sec)
Average map sizes:
   Aux shells -> PAOs            348.0
   PAOs       -> AO shells       131.8

Calculating integrals NOTE: Switching SHARK to General Contraction for MDCI
      If that is not desired please turn off the PGCFlag in the input (%shark PGCFlag 0 end)
(2.0 sec, 781.672 MB)
Finished


-------------------------------------
Pair Pair Term precalculation with     
RI-(ij|mn) and (im|jn) transformation  
ON THE FLY                             
-------------------------------------

   IBatch   1 (of   1)              ... done (    6.973 sec)
Total EXT                           ...           6.973 sec

IAVPA Available = YES
VABPAO Available= YES
IJV Available   = YES
IJK Available   = NO
PNO3i Available = YES
PNO3j Available = YES
PNO4 Available  = YES
---------------------
RI-PNO TRANSFORMATION
---------------------

Total Number of PNOs                   ...  3528
Average number of PNOs per pair        ...    27
Maximal number of PNOs per pair        ...    44
   #pairs with  1 -  5 PNOs   :    0
   #pairs with  6 - 10 PNOs   :   13
   #pairs with 11 - 15 PNOs   :   28
   #pairs with 16 - 20 PNOs   :   21
   #pairs with 21 - 25 PNOs   :    3
   #pairs with 26 - 30 PNOs   :    3
   #pairs with 31 - 35 PNOs   :    1
   #pairs with 36 - 40 PNOs   :   24
   #pairs with 41 - 45 PNOs   :   36
   #pairs with 46 - 50 PNOs   :    0

Generation of (ij|ab)[P] integrals            ... on
Generation of (ia|bc)[P],(ja|bc)[P] integrals ... on
Storage of 3 and 4 external integrals         ... on
Generation of ALL (ka|bc)[P] integrals        ... on
Keep RI integrals in memory                   ... off

Ibatch:  1 (of  1)
Starting 2-4 index PNO integral generation ... done

Timings:
Total PNO integral transformation time     ...          6.143 sec
Size of the 3-external file                ...        36 MB
Size of the 4-external file                ...       191 MB
Size of the IKJL file                      ...         0 MB
Size of the all 3-external file            ...       440 MB
Size of the 1-external file                ...         1 MB

Making pair/pair overlap matrices          ... done (    0.943 sec)
Size of the pair overlap file              ... 90 MB
Redoing the guess amplitudes               ... done (    0.001 sec)

-------------------------
FINAL STARTUP INFORMATION
-------------------------

E(0)                                       ...   -456.396533604
E(SL-MP2)                                  ...     -1.556360064
E(SL-MP2) including corrections            ...     -1.556535275
Initial E(tot)                             ...   -457.953068879
<T|T>                                      ...      0.337553421
Number of pairs included                   ... 129
Total number of pairs                      ... 300

------------------------------------------------
                  RHF COUPLED CLUSTER ITERATIONS
------------------------------------------------

Number of PNO amplitudes to be optimized   ...       121438
Number of non-PNO amplitudes               ...     13044996
Untruncated number of regular amplitudes   ...     30337200

Iter       E(tot)           E(Corr)          Delta-E          Residual     Time
  0   -457.953099633     -1.548649891      0.007710172      0.015484990    2.71
                           *** Turning on DIIS ***
  1   -457.989938889     -1.585489148     -0.036839257      0.007020263    2.65
  2   -458.022773581     -1.618323839     -0.032834691      0.002073624    2.70
  3   -458.028501544     -1.624051803     -0.005727963      0.000896844    2.67
  4   -458.029893321     -1.625443580     -0.001391777      0.000297059    2.67
  5   -458.030096247     -1.625646506     -0.000202927      0.000107298    2.69
  6   -458.030140458     -1.625690717     -0.000044211      0.000034441    2.65
  7   -458.030141213     -1.625691472     -0.000000755      0.000011609    2.69
  8   -458.030143730     -1.625693989     -0.000002517      0.000003840    2.64
               --- The Coupled-Cluster iterations have converged ---

----------------------
COUPLED CLUSTER ENERGY
----------------------

E(0)                                       ...   -456.396533604
E(CORR)(strong-pairs)                      ...     -1.625693989
E(CORR)(weak-pairs)                        ...     -0.007916137
E(CORR)(corrected)                         ...     -1.633610126
E(TOT)                                     ...   -458.030143730
Singles Norm <S|S>**1/2                    ...      0.054732026  
T1 diagnostic                              ...      0.007899887  

------------------
LARGEST AMPLITUDES
------------------
  24-> 30  24-> 30       0.035494
  22-> 30  22-> 30       0.034888
  26-> 30  26-> 30       0.034298
  23-> 30  23-> 30       0.034040
  18-> 30  18-> 30       0.033440
  27-> 30  27-> 30       0.032951
  20-> 30  20-> 30       0.032822
  25-> 30  25-> 30       0.032700
  28-> 30  28-> 30       0.032574
  21-> 30  21-> 30       0.031265
  28-> 31  28-> 31       0.030335
  20-> 31  20-> 31       0.030083
  19-> 30  19-> 30       0.029224
  29-> 30  29-> 30       0.028833
  29-> 32  29-> 32       0.028476
  18-> 31  18-> 31       0.028330


-------------------------------------------
DLPNO BASED TRIPLES CORRECTION
-------------------------------------------

Singles multiplier          ...  1.000000
TCutTNO                     ... 1.000e-09
TCutMP2Pairs                ... 1.000e-05
TCutDOStrong                ... 2.000e-02
TCutMKNStrong               ... 1.000e-02
TCutDOWeak                  ... 4.000e-02
TCutMKNWeak                 ... 1.000e-01

Fragment selection                          .... not used
Fock matrix occ-virt block is zero --> Setting DT_in_Triples to false.
Number of Triples that are to be computed   ...       720

 . . . . . . . . .
10% done  
20% done  
30% done  
40% done  
50% done  
60% done  
70% done  
80% done  
90% done               (     14.866 sec)
Triples timings:
Total time for T0               ...    17.022 sec
Total time for Iterative (T)    ...     0.000 sec
Total time of overall (T)       ...    17.863 sec

Triples List generation         ...     0.000 sec
TNO generation                  ...     2.149 sec
Pair density generation         ...     0.002 sec
Look up tables                  ...     0.000 sec
Generating 3-index integrals    ...     9.755 sec
  Make 4-ind.int. from 3-ind.int...     1.091 sec
  Projecting amplitudes (D + S) ...     2.649 sec
  Downprojecting integrals      ...     0.000 sec
  Energy contr. (sum over a,b,c)...     0.317 sec
Fitting ET(->0)                 ...     0.000 sec

Everything after 3-index        ...     5.111 sec

Timing details:
 TNO integrals                  ...    10.681 sec
   Reading 3-index integrals    ...     0.318 sec
   Sorting integrals            ...     1.555 sec
       Sorting integrals 1      ...     0.000 sec
       Sorting integrals 2      ...     1.168 sec
       Sorting integrals 3      ...     0.059 sec
       Sorting integrals 4      ...     0.011 sec
       Sorting integrals 5      ...     0.021 sec
       Sorting integrals 6      ...     0.296 sec
   Calculating local VM**-1/2   ...     0.086 sec
   Orthogonal. integrals        ...     0.159 sec
   Multipl. 3-index integrals   ...     8.563 sec
   All concerning IRIab (w/TNO) ...     0.478 sec

 Calculate W0/W1                ...     1.052 sec
 W 3-ext contribution           ...     0.583 sec
 W 3-int contribution           ...     0.221 sec
 Sorting W                      ...     0.201 sec

 V exchange contribution        ...     0.113 sec

 Timings for Triples without generation
     of 3-index integrals       ...     5.111 sec
       0 weak pairs             ...     2.746 sec
       1 weak pair              ...     2.365 sec
       2 weak pairs             ...     0.000 sec
       3 weak pairs             ...     0.000 sec
  Extra time for extrapolation  ...     0.000 sec

Number of Triples   (0, 1, 2, 3 weak pairs; overall):    367     353       0       0  (   720)
Number of Atoms     (0, 1, 2, 3 weak pairs; overall):   11.4    10.2     0.0     0.0  (    18)
Number of PAOs      (0, 1, 2, 3 weak pairs; overall):  228.9   192.0     0.0     0.0  (   348)
Number of AuxFcns   (0, 1, 2, 3 weak pairs; overall):  211.2   247.7     0.0     0.0  (   846)
Number of TNOs      (0, 1, 2, 3 weak pairs         ):   61.4    49.1     0.0     0.0
Aver. Number of NTNO, Atoms, PAOs, AuxFcns / Triples:    720    55.3    10.8   210.8   229.1

Triples Correction (T)                     ...     -0.048629541
Final correlation energy                   ...     -1.682239667
E(CCSD)                                    ...   -458.030143730
E(CCSD(T))                                 ...   -458.078773271



--------------------------------------------------------------------------------
                                    TIMINGS
--------------------------------------------------------------------------------


Total execution time                   ...       69.156 sec

Localization of occupied MO's          ...        0.202 sec (  0.3%)
Fock Matrix Formation                  ...        1.195 sec (  1.7%)
Global overlap, Fock, MKN matrices     ...        0.285 sec (  0.4%)
Differential overlap integrals         ...        0.647 sec (  0.9%)
Organizing maps                        ...        0.023 sec (  0.0%)
RI 3-index integral generations        ...        5.346 sec (  7.7%)
RI-PNO integral transformation         ...       14.362 sec ( 20.8%)
Initial Guess                          ...        4.629 sec (  6.7%)
DIIS Solver                            ...        0.363 sec (  0.5%)
State Vector Update                    ...        0.005 sec (  0.0%)
Sigma-vector construction              ...       23.696 sec ( 34.3%)
  <D|H|D>(0-ext)                       ...        2.196 sec (  9.3% of sigma)
  <D|H|D>(2-ext Fock)                  ...        0.005 sec (  0.0% of sigma)
  <D|H|D>(2-ext)                       ...        2.458 sec ( 10.4% of sigma)
  <D|H|D>(4-ext)                       ...        1.423 sec (  6.0% of sigma)
  <D|H|D>(4-ext-corr)                  ...        6.027 sec ( 25.4% of sigma)
  CCSD doubles correction              ...        0.238 sec (  1.0% of sigma)
  <S|H|S>                              ...        1.558 sec (  6.6% of sigma)
  <S|H|D>(1-ext)                       ...        0.156 sec (  0.7% of sigma)
  <D|H|S>(1-ext)                       ...        0.005 sec (  0.0% of sigma)
  <S|H|D>(3-ext)                       ...        0.079 sec (  0.3% of sigma)
  Fock-dressing                        ...        4.940 sec ( 20.8% of sigma)
  Singles amplitudes                   ...        0.490 sec (  2.1% of sigma)
  (ik|jl)-dressing                     ...        2.409 sec ( 10.2% of sigma)
  (ij|ab),(ia|jb)-dressing             ...        0.798 sec (  3.4% of sigma)
  Pair energies                        ...        0.004 sec (  0.0% of sigma)
Total Time for computing (T)           ...       17.865 sec ( 25.8% of ALL)


Maximum memory used throughout the entire MDCI-calculation: 599.2 MB

-------------------------   --------------------
FINAL SINGLE POINT ENERGY      -458.078773271165
-------------------------   --------------------



           ************************************************************
           *        Program running with 8 parallel MPI-processes     *
           *              working on a common directory               *
           ************************************************************

------------------------------------------------------------------------------
                              ORCA PROPERTY CALCULATIONS
------------------------------------------------------------------------------

GBWName                                 ... sp.gbw
Number of atoms                         ...     18
Number of basis functions               ...    384
Max core memory                         ...   6000 MB

Electric properties:
Dipole moment                           ... YES
Quadrupole moment                       ...  NO
Static polarizability (Dipole/Dipole)   ...  NO
Static polarizability (Dipole/Quad.)    ...  NO
Static polarizability (Quad./Quad.)     ...  NO
Static polarizability (Velocity)        ...  NO

Atomic electric properties:
Dipole moment                           ...  NO
Quadrupole moment                       ...  NO
Static polarizability                   ...  NO

Choice of electric origin               ... Center of mass
Position of electric origin             ...     0.018678    -0.009062    -0.002315

General magnetic properties:
Magnetizability                         ...  NO

EPR properties:
g-Tensor (aka g-matrix)                 ...  NO
Zero-Field splitting spin-orbit         ...  NO
Zero-field splitting spin-spin          ...  NO
Hyperfine couplings                     ...  NO (   0 nuclei)
Quadrupole couplings                    ...  NO (   0 nuclei)
Contact density                         ...  NO (   0 nuclei)

NMR properties:
Chemical shifts                         ...  NO (   0 nuclei)
Spin-rotation constants                 ...  NO (   0 nuclei)
Spin-spin couplings                     ...  NO (   0 nuclei,    0 pairs)

Choice of magnetic origin               ... GIAO
Position of magnetic origin             ...     0.000000     0.000000     0.000000

Properties with geometric perturbations:
SCF Hessian                             ...  NO
IR spectrum                             ...  NO
VCD spectrum                            ...  NO
X-ray spectroscopy properties:
SCF XES/XAS/RIXS spectra                ...  NO


-------------
DIPOLE MOMENT
-------------

Method             : SCF
Type of density    : Electron Density
Multiplicity       :   1
Irrep              :   0
Energy             :  -456.3965336033358540 Eh
Relativity type    : 
Basis              : AO
                                X                 Y                 Z
Electronic contribution:      0.124265194      -0.091420743       0.016891744
Nuclear contribution   :     -1.120644582       0.543713783       0.138879372
                        -----------------------------------------
Total Dipole Moment    :     -0.996379388       0.452293040       0.155771116
                        -----------------------------------------
Magnitude (a.u.)       :      1.105262647
Magnitude (Debye)      :      2.809354387



--------------------
Rotational spectrum 
--------------------
 
Rotational constants in cm-1:             0.057134             0.047461             0.045643 
Rotational constants in MHz :          1712.820498          1422.851719          1368.343778 

Dipole components along the rotational axes: 
x,y,z [a.u.] :    -1.026028     0.382660     0.149814 
x,y,z [Debye]:    -2.607955     0.972644     0.380797 

 

Dipole moment calculation done in   0.0 sec 

Maximum memory used throughout the entire PROP-calculation: 18.1 MB

--------------------------------
SUGGESTED CITATIONS FOR THIS RUN
--------------------------------

Below you find a list of papers that are relevant to this ORCA run
We neither can nor want to force you to cite these papers, but we appreciate if you do
You receive ORCA, which is the product of decades of hard work by many enthusiastic individuals, for free
The only thing we kindly ask in return is that you cite our papers,
We deeply appreciate it, if you show your appreciation for ORCA by not just citing the generic ORCA reference.

Please note that relegating all ORCA citations to the supporting information does *not* help us.
SI sections are not indexed - citations you put there will not count into any citation statistics
But we need these citations in order to attract the funding resources that allow us to do what we are doing

Therefore, if you are a happy ORCA user, please consider citing a few of the papers listed below in the main body of your paper

In addition to the list printed below, the program has created the file sp.bibtex that contains the list in bibtex format
You can import this file easily into all common literature databanks and citation aid programs


List of essential papers. We consider these as the minimum necessary citations

  1. Neese,F.
     Software update: the ORCA program system, version 5.0
     WIRES Comput. Molec. Sci., 2022 12(1)e1606
     doi.org/10.1002/wcms.1606

List of papers to cite with high priority. The work reported in these papers was absolutely
necessary for this run to complete.
Our perspective: the developers of density functionals and basis sets usually get cited in chemistry papers
Good! But without the algorithms to do something with them, the functionals or basis sets would not do anything.
Hence, in our opinion, the algorithm design and method developments papers are equally worthy of getting cited

  1. Neese,F.
     An improvement of the resolution of the identity approximation for the formation of the Coulomb matrix
     J. Comp. Chem., 2003 24(14)1740-1747
     doi.org/10.1002/jcc.10318
  2. Kossmann,S.; Neese,F.
     Comparison of two efficient approximate Hartee-Fock approaches
     Chem. Phys. Lett., 2009 481 240-243
     doi.org/10.1016/j.cplett.2009.09.073
  3. Neese,F.; Hansen,A.; Liakos,D.G.
     Efficient and accurate approximations to the local coupled cluster singles doubles method using a truncated pair natural orbital basis
     J. Chem. Phys., 2009 131 064103
     doi.org/10.1063/1.3173827
  4. Neese,F.; Wennmohs,F.; Hansen,A.
     Efficient and accurate local approximations to coupled-electron pair approaches: An attempt to revive the pair natural orbital method
     J. Chem. Phys., 2009 130 114108
     doi.org/10.1063/1.3086717
  5. Riplinger,C.; Neese,F.
     An efficient and near linear scaling pair natural orbital based local coupled cluster method
     J. Chem. Phys., 2013 138(3)Art. No. 034106
     doi.org/10.1063/1.4773581
  6. Riplinger,C.; Sandhoefer,B.; Hansen,A.; Neese,F.
     Natural triple excitations in local coupled cluster calculations with pair natural orbitals
     J. Chem. Phys., 2013 139(13)Art. No. 134101
     doi.org/10.1063/1.4821834
  7. Riplinger,C.; Pinski,P.; Becker,U.; Valeev,E.F.; Neese,F.
     Sparse maps-A systematic infrastructure for reduced-scaling electronic structure methods. II. Linear scaling domain based pair natural orbital coupled cluster theory
     J. Chem. Phys., 2016 144 
     doi.org/10.1063/1.4939030
  8. Bistoni,G.; Riplinger,C.; Minenkov,Y.; Cavallo,L.; Auer,A.A.; Neese,F.
     Treating Subvalence Correlation Effects in Domain Based Pair Natural Orbital Coupled Cluster Calculations: An Out-of-the-Box Approach
     J. Theo. Comp. Chem., 2017 13 3220-3227
     doi.org/10.1021/acs.jctc.7b00352
  9. Neese,F.
     The SHARK Integral Generation and Digestion System
     J. Comp. Chem., 2022  1-16
     doi.org/10.1002/jcc.26942

List of suggested additional citations. These are papers that are important in the 'surrounding' of 
of this run, or papers that preceded the highly important papers. If you like your results we are grateful for a citation.

  1. Neese,F.
     The ORCA program system
     WIRES Comput. Molec. Sci., 2012 2(1)73-78
     doi.org/10.1002/wcms.81
  2. Neese,F.
     Software update: the ORCA program system, version 4.0
     WIRES Comput. Molec. Sci., 2018 8(1)1-6
     doi.org/10.1002/wcms.1327
  3. Neese,F.; Wennmohs,F.; Becker,U.; Riplinger,C.
     The ORCA quantum chemistry program package
     J. Chem. Phys., 2020 152 Art. No. L224108
     doi.org/10.1063/5.0004608

List of optional additional citations

  1. Neese,F.
     Approximate second-order SCF convergence for spin unrestricted wavefunctions
     Chem. Phys. Lett., 2000 325(1-3)93-98
     doi.org/10.1016/s0009-2614(00)00662-x

Timings for individual modules:

Sum of individual times          ...       85.088 sec (=   1.418 min)
Startup calculation              ...        2.525 sec (=   0.042 min)   3.0 %
SCF iterations                   ...       12.171 sec (=   0.203 min)  14.3 %
Property integrals               ...        0.337 sec (=   0.006 min)   0.4 %
Property calculations            ...        0.589 sec (=   0.010 min)   0.7 %
MDCI module                      ...       69.467 sec (=   1.158 min)  81.6 %
                             ****ORCA TERMINATED NORMALLY****
TOTAL RUN TIME: 0 days 0 hours 1 minutes 25 seconds 472 msec
